
                                 *****************
                                 * O   R   C   A *
                                 *****************

                                            #,                                       
                                            ###                                      
                                            ####                                     
                                            #####                                    
                                            ######                                   
                                           ########,                                 
                                     ,,################,,,,,                         
                               ,,#################################,,                 
                          ,,##########################################,,             
                       ,#########################################, ''#####,          
                    ,#############################################,,   '####,        
                  ,##################################################,,,,####,       
                ,###########''''           ''''###############################       
              ,#####''   ,,,,##########,,,,          '''####'''          '####       
            ,##' ,,,,###########################,,,                        '##       
           ' ,,###''''                  '''############,,,                           
         ,,##''                                '''############,,,,        ,,,,,,###''
      ,#''                                            '''#######################'''  
     '                                                          ''''####''''         
             ,#######,   #######,   ,#######,      ##                                
            ,#'     '#,  ##    ##  ,#'     '#,    #''#        ######   ,####,        
            ##       ##  ##   ,#'  ##            #'  '#       #        #'  '#        
            ##       ##  #######   ##           ,######,      #####,   #    #        
            '#,     ,#'  ##    ##  '#,     ,#' ,#      #,         ##   #,  ,#        
             '#######'   ##     ##  '#######'  #'      '#     #####' # '####'        



                  #######################################################
                  #                        -***-                        #
                  #          Department of theory and spectroscopy      #
                  #    Directorship and core code : Frank Neese         #
                  #        Max Planck Institute fuer Kohlenforschung    #
                  #                Kaiser Wilhelm Platz 1               #
                  #                 D-45470 Muelheim/Ruhr               #
                  #                      Germany                        #
                  #                                                     #
                  #                  All rights reserved                #
                  #                        -***-                        #
                  #######################################################


                         Program Version 5.0.4 -  RELEASE  -


 With contributions from (in alphabetic order):
   Daniel Aravena         : Magnetic Suceptibility
   Michael Atanasov       : Ab Initio Ligand Field Theory (pilot matlab implementation)
   Alexander A. Auer      : GIAO ZORA, VPT2 properties, NMR spectrum
   Ute Becker             : Parallelization
   Giovanni Bistoni       : ED, misc. LED, open-shell LED, HFLD
   Martin Brehm           : Molecular dynamics
   Dmytro Bykov           : SCF Hessian
   Vijay G. Chilkuri      : MRCI spin determinant printing, contributions to CSF-ICE
   Dipayan Datta          : RHF DLPNO-CCSD density
   Achintya Kumar Dutta   : EOM-CC, STEOM-CC
   Dmitry Ganyushin       : Spin-Orbit,Spin-Spin,Magnetic field MRCI
   Miquel Garcia          : C-PCM and meta-GGA Hessian, CC/C-PCM, Gaussian charge scheme
   Yang Guo               : DLPNO-NEVPT2, F12-NEVPT2, CIM, IAO-localization
   Andreas Hansen         : Spin unrestricted coupled pair/coupled cluster methods
   Benjamin Helmich-Paris : MC-RPA, TRAH-SCF, COSX integrals
   Lee Huntington         : MR-EOM, pCC
   Robert Izsak           : Overlap fitted RIJCOSX, COSX-SCS-MP3, EOM
   Marcus Kettner         : VPT2
   Christian Kollmar      : KDIIS, OOCD, Brueckner-CCSD(T), CCSD density, CASPT2, CASPT2-K
   Simone Kossmann        : Meta GGA functionals, TD-DFT gradient, OOMP2, MP2 Hessian
   Martin Krupicka        : Initial AUTO-CI
   Lucas Lang             : DCDCAS
   Marvin Lechner         : AUTO-CI (C++ implementation), FIC-MRCC
   Dagmar Lenk            : GEPOL surface, SMD
   Dimitrios Liakos       : Extrapolation schemes; Compound Job, initial MDCI parallelization
   Dimitrios Manganas     : Further ROCIS development; embedding schemes
   Dimitrios Pantazis     : SARC Basis sets
   Anastasios Papadopoulos: AUTO-CI, single reference methods and gradients
   Taras Petrenko         : DFT Hessian,TD-DFT gradient, ASA, ECA, R-Raman, ABS, FL, XAS/XES, NRVS
   Peter Pinski           : DLPNO-MP2, DLPNO-MP2 Gradient
   Christoph Reimann      : Effective Core Potentials
   Marius Retegan         : Local ZFS, SOC
   Christoph Riplinger    : Optimizer, TS searches, QM/MM, DLPNO-CCSD(T), (RO)-DLPNO pert. Triples
   Tobias Risthaus        : Range-separated hybrids, TD-DFT gradient, RPA, STAB
   Michael Roemelt        : Original ROCIS implementation
   Masaaki Saitow         : Open-shell DLPNO-CCSD energy and density
   Barbara Sandhoefer     : DKH picture change effects
   Avijit Sen             : IP-ROCIS
   Kantharuban Sivalingam : CASSCF convergence, NEVPT2, FIC-MRCI
   Bernardo de Souza      : ESD, SOC TD-DFT
   Georgi Stoychev        : AutoAux, RI-MP2 NMR, DLPNO-MP2 response
   Willem Van den Heuvel  : Paramagnetic NMR
   Boris Wezisla          : Elementary symmetry handling
   Frank Wennmohs         : Technical directorship


 We gratefully acknowledge several colleagues who have allowed us to
 interface, adapt or use parts of their codes:
   Stefan Grimme, W. Hujo, H. Kruse, P. Pracht,  : VdW corrections, initial TS optimization,
                  C. Bannwarth, S. Ehlert          DFT functionals, gCP, sTDA/sTD-DF
   Ed Valeev, F. Pavosevic, A. Kumar             : LibInt (2-el integral package), F12 methods
   Garnet Chan, S. Sharma, J. Yang, R. Olivares  : DMRG
   Ulf Ekstrom                                   : XCFun DFT Library
   Mihaly Kallay                                 : mrcc  (arbitrary order and MRCC methods)
   Jiri Pittner, Ondrej Demel                    : Mk-CCSD
   Frank Weinhold                                : gennbo (NPA and NBO analysis)
   Christopher J. Cramer and Donald G. Truhlar   : smd solvation model
   Lars Goerigk                                  : TD-DFT with DH, B97 family of functionals
   V. Asgeirsson, H. Jonsson                     : NEB implementation
   FAccTs GmbH                                   : IRC, NEB, NEB-TS, DLPNO-Multilevel, CI-OPT
                                                   MM, QMMM, 2- and 3-layer-ONIOM, Crystal-QMMM,
                                                   LR-CPCM, SF, NACMEs, symmetry and pop. for TD-DFT,
                                                   nearIR, NL-DFT gradient (VV10), updates on ESD,
                                                   ML-optimized integration grids
   S Lehtola, MJT Oliveira, MAL Marques          : LibXC Library
   Liviu Ungur et al                             : ANISO software


 Your calculation uses the libint2 library for the computation of 2-el integrals
 For citations please refer to: http://libint.valeyev.net

 Your ORCA version has been built with support for libXC version: 5.1.0
 For citations please refer to: https://tddft.org/programs/libxc/

 This ORCA versions uses:
   CBLAS   interface :  Fast vector & matrix operations
   LAPACKE interface :  Fast linear algebra routines
   SCALAPACK package :  Parallel linear algebra routines
   Shared memory     :  Shared parallel matrices
   BLAS/LAPACK       :  OpenBLAS 0.3.15  USE64BITINT DYNAMIC_ARCH NO_AFFINITY Zen SINGLE_THREADED
        Core in use  :  Zen
   Copyright (c) 2011-2014, The OpenBLAS Project




***************************************
The coordinates will be read from file: input.xyz
***************************************


Your calculation utilizes the atom-pairwise dispersion correction
based on tight binding partial charges (D4)
Cite in your paper:
E.Caldeweyher, C.Bannwarth, S.Grimme, J.Chem.Phys., (2017), 147, 034112.
E.Caldeweyher, S.Ehlert, A.Hansen, H.Neugebauer, S.Grimme, J.Chem.Phys., (2018), in progress.
   

================================================================================

cite the ECPs for Pt [Def2-ECP] as follows:
Ce-Yb(ecp-28): M. Dolg, H. Stoll, H.Preuss, J. Chem. Phys., 1989, 90, 1730-1734.
Y-Cd(ecp-28), Hf-Hg(ecp-46): D. Andrae,U. Haeussermann, M. Dolg, H. Stoll, H. Preuss, Theor. Chim. Acta, 1990, 77, 123-141.
In-Sb(ecp-28), Tl-Bi(ecp-46): B. Metz, H. Stoll, M. Dolg, J. Chem. Phys., 2000, 113, 2563-2569.
Te-Xe(ecp-28), Po-Rn(ecp-46): K. A. Peterson, D. Figgen, E. Goll, H. Stoll, M. Dolg, J. Chem. Phys., 2003, 119, 11113-11123.
Rb(ecp-28), Cs(ecp-46): T. Leininger, A. Nicklass, W. Kuechle, H. Stoll, M. Dolg, A. Bergner, Chem. Phys. Lett., 1996, 255, 274-280.
Sr(ecp-28), Ba(ecp-46): M. Kaupp, P. V. Schleyer, H. Stoll and H. Preuss, J. Chem. Phys., 1991, 94, 1360-1366.
La(ecp-46): M. Dolg, H. Stoll, A. Savin, H. Preuss, Theor. Chim. Acta, 1989, 75, 173-194.
Lu(ecp-28): X. Cao, M. Dolg, J. Chem. Phys., 2001, 115, 7348-7355.

ECP parameters for Pt [Def2-ECP] have been obtained from:
TURBOMOLE (7.0.2)

----- Orbital basis set information -----
Your calculation utilizes the basis: def2-SVP
   F. Weigend and R. Ahlrichs, Phys. Chem. Chem. Phys. 7, 3297 (2005).

----- AuxJ basis set information -----
Your calculation utilizes the auxiliary basis: def2/J
   F. Weigend, Phys. Chem. Chem. Phys. 8, 1057 (2006).

================================================================================
                                        WARNINGS
                       Please study these warnings very carefully!
================================================================================


WARNING: Geometry Optimization
  ===> : Switching off AutoStart
         For restart on a previous wavefunction, please use MOREAD

INFO   : the flag for use of the SHARK integral package has been found!

================================================================================
                                       INPUT FILE
================================================================================
NAME = orca_opt.inp
|  1> ! BP86 def2-SVP D4 
|  2> ! OPT
|  3> ! CPCM(Water)
|  4> 
|  5> %PAL NPROCS 8 END
|  6> 
|  7> %scf
|  8> maxiter 350
|  9> end
| 10> 
| 11> * xyzfile 0 1 input.xyz
| 12> 
| 13>                          ****END OF INPUT****
================================================================================

                       *****************************
                       * Geometry Optimization Run *
                       *****************************

Geometry optimization settings:
Update method            Update   .... BFGS
Choice of coordinates    CoordSys .... Z-matrix Internals
Initial Hessian          InHess   .... Almoef's Model

Convergence Tolerances:
Energy Change            TolE     ....  5.0000e-06 Eh
Max. Gradient            TolMAXG  ....  3.0000e-04 Eh/bohr
RMS Gradient             TolRMSG  ....  1.0000e-04 Eh/bohr
Max. Displacement        TolMAXD  ....  4.0000e-03 bohr
RMS Displacement         TolRMSD  ....  2.0000e-03 bohr
Strict Convergence                ....  False
------------------------------------------------------------------------------
                        ORCA OPTIMIZATION COORDINATE SETUP
------------------------------------------------------------------------------

The optimization will be done in new redundant internal coordinates
Making redundant internal coordinates   ...  (new redundants) done
Evaluating the initial hessian          ...  (Almloef) done
Evaluating the coordinates              ...  done
Calculating the B-matrix                .... done
Calculating the G-matrix                .... done
Diagonalizing the G-matrix              .... done
The first mode is                       ....   11
The number of degrees of freedom        ....   27

    -----------------------------------------------------------------
                    Redundant Internal Coordinates


    -----------------------------------------------------------------
         Definition                    Initial Value    Approx d2E/dq
    -----------------------------------------------------------------
      1. B(N   1,Pt  0)                  2.0731         0.063331   
      2. B(H   2,N   1)                  1.0322         0.398876   
      3. B(H   3,N   1)                  1.0314         0.399923   
      4. B(H   4,N   1)                  1.0356         0.393941   
      5. B(N   5,Pt  0)                  2.0737         0.063183   
      6. B(H   6,N   5)                  1.0317         0.399569   
      7. B(H   7,N   5)                  1.0347         0.395142   
      8. B(H   8,N   5)                  1.0319         0.399325   
      9. B(Cl  9,Pt  0)                  2.3448         0.058480   
     10. B(Cl 10,Pt  0)                  2.3449         0.058457   
     11. A(N   1,Pt  0,Cl  9)           85.8090         0.221433   
     12. A(N   1,Pt  0,N   5)           93.4147         0.215799   
     13. A(N   5,Pt  0,Cl 10)           85.8256         0.221351   
     14. A(Cl  9,Pt  0,Cl 10)           94.9508         0.227231   
     15. A(H   2,N   1,H   3)          107.2350         0.295627   
     16. A(H   3,N   1,H   4)          107.2711         0.295046   
     17. A(H   2,N   1,H   4)          107.2717         0.294924   
     18. A(Pt  0,N   1,H   3)          113.3661         0.250955   
     19. A(Pt  0,N   1,H   4)          107.8588         0.250404   
     20. A(Pt  0,N   1,H   2)          113.5064         0.250859   
     21. A(H   7,N   5,H   8)          107.3732         0.295118   
     22. A(H   6,N   5,H   8)          107.2446         0.295639   
     23. A(Pt  0,N   5,H   8)          113.3190         0.250815   
     24. A(H   6,N   5,H   7)          107.3857         0.295147   
     25. A(Pt  0,N   5,H   7)          107.8611         0.250430   
     26. A(Pt  0,N   5,H   6)          113.3488         0.250837   
     27. D(H   4,N   1,Pt  0,N   5)    179.6309         0.001682   
     28. D(H   3,N   1,Pt  0,Cl  9)    118.3328         0.001682   
     29. D(H   2,N   1,Pt  0,N   5)     60.9259         0.001682   
     30. D(H   4,N   1,Pt  0,Cl  9)     -0.2867         0.001682   
     31. D(H   3,N   1,Pt  0,N   5)    -61.7497         0.001682   
     32. D(H   2,N   1,Pt  0,Cl  9)   -118.9916         0.001682   
     33. D(H   6,N   5,Pt  0,N   1)    -61.2781         0.001681   
     34. D(H   8,N   5,Pt  0,Cl 10)   -118.6904         0.001681   
     35. D(H   8,N   5,Pt  0,N   1)     61.2488         0.001681   
     36. D(H   7,N   5,Pt  0,Cl 10)      0.0294         0.001681   
     37. D(H   7,N   5,Pt  0,N   1)    179.9686         0.001681   
     38. D(H   6,N   5,Pt  0,Cl 10)    118.7827         0.001681   
    -----------------------------------------------------------------

Number of atoms                         .... 11
Number of degrees of freedom            .... 38

         *************************************************************
         *                GEOMETRY OPTIMIZATION CYCLE   1            *
         *************************************************************
---------------------------------
CARTESIAN COORDINATES (ANGSTROEM)
---------------------------------
  Pt    -2.872000    0.147000    0.175000
  N     -0.890000    0.636000    0.536000
  H     -0.770000    1.545000    1.010000
  H     -0.312000    0.658000   -0.318000
  H     -0.492000   -0.090000    1.158000
  N     -3.192000    1.807000   -1.026000
  H     -3.053000    2.702000   -0.532000
  H     -4.175000    1.781000   -1.348000
  H     -2.593000    1.825000   -1.866000
  Cl    -2.481000   -1.719000    1.540000
  Cl    -5.116000   -0.382000   -0.253000

----------------------------
CARTESIAN COORDINATES (A.U.)
----------------------------
  NO LB      ZA    FRAG     MASS         X           Y           Z
   0 Pt   18.0000*   0   195.090   -5.427293    0.277790    0.330702
   1 N     7.0000    0    14.007   -1.681856    1.201866    1.012893
   2 H     1.0000    0     1.008   -1.455089    2.919627    1.908623
   3 H     1.0000    0     1.008   -0.589595    1.243440   -0.600933
   4 H     1.0000    0     1.008   -0.929745   -0.170075    2.188303
   5 N     7.0000    0    14.007   -6.032006    3.414735   -1.938859
   6 H     1.0000    0     1.008   -5.769334    5.106040   -1.005334
   7 H     1.0000    0     1.008   -7.889607    3.365602   -2.547351
   8 H     1.0000    0     1.008   -4.900060    3.448750   -3.526229
   9 Cl   17.0000    0    35.453   -4.688411   -3.248439    2.910178
  10 Cl   17.0000    0    35.453   -9.667839   -0.721875   -0.478101
* core charge reduced due to ECP

--------------------------------
INTERNAL COORDINATES (ANGSTROEM)
--------------------------------
 Pt     0   0   0     0.000000000000     0.00000000     0.00000000
 N      1   0   0     2.073105400118     0.00000000     0.00000000
 H      2   1   0     1.032161324600   113.50642463     0.00000000
 H      2   1   3     1.031447526537   113.36610421   237.32440170
 H      2   1   3     1.035550095360   107.85876053   118.70495688
 N      1   2   3     2.073740822765    93.41465891    60.92594111
 H      6   1   2     1.031688906599   113.34882144   298.72193356
 H      6   1   2     1.034721701715   107.86108984   179.96863098
 H      6   1   2     1.031855125490   113.31900077    61.24884447
 Cl     1   2   3     2.344794660519    85.80896255   241.00835853
 Cl     1   2   3     2.344901064011   179.23786542    65.48559881

---------------------------
INTERNAL COORDINATES (A.U.)
---------------------------
 Pt     0   0   0     0.000000000000     0.00000000     0.00000000
 N      1   0   0     3.917601452977     0.00000000     0.00000000
 H      2   1   0     1.950502229519   113.50642463     0.00000000
 H      2   1   3     1.949153346666   113.36610421   237.32440170
 H      2   1   3     1.956906078186   107.85876053   118.70495688
 N      1   2   3     3.918802227757    93.41465891    60.92594111
 H      6   1   2     1.949609488877   113.34882144   298.72193356
 H      6   1   2     1.955340641066   107.86108984   179.96863098
 H      6   1   2     1.949923597059   113.31900077    61.24884447
 Cl     1   2   3     4.431019748662    85.80896255   241.00835853
 Cl     1   2   3     4.431220822121   179.23786542    65.48559881

---------------------
BASIS SET INFORMATION
---------------------
There are 4 groups of distinct atoms

 Group   1 Type Pt  : 7s6p5d1f contracted to 6s3p2d1f pattern {211111/411/41/1}
 Group   2 Type N   : 7s4p1d contracted to 3s2p1d pattern {511/31/1}
 Group   3 Type H   : 4s1p contracted to 2s1p pattern {31/1}
 Group   4 Type Cl  : 10s7p1d contracted to 4s3p1d pattern {5311/511/1}

Atom   0Pt   basis set group =>   1
Atom   1N    basis set group =>   2
Atom   2H    basis set group =>   3
Atom   3H    basis set group =>   3
Atom   4H    basis set group =>   3
Atom   5N    basis set group =>   2
Atom   6H    basis set group =>   3
Atom   7H    basis set group =>   3
Atom   8H    basis set group =>   3
Atom   9Cl   basis set group =>   4
Atom  10Cl   basis set group =>   4
---------------------------------
AUXILIARY/J BASIS SET INFORMATION
---------------------------------
There are 4 groups of distinct atoms

 Group   1 Type Pt  : 11s5p5d3f3g contracted to 8s5p5d2f3g pattern {41111111/11111/11111/21/111}
 Group   2 Type N   : 12s5p4d2f1g contracted to 6s4p3d1f1g pattern {711111/2111/211/2/1}
 Group   3 Type H   : 5s2p1d contracted to 3s1p1d pattern {311/2/1}
 Group   4 Type Cl  : 14s5p5d2f1g contracted to 8s4p3d1f1g pattern {71111111/2111/311/2/1}

Atom   0Pt   basis set group =>   1
Atom   1N    basis set group =>   2
Atom   2H    basis set group =>   3
Atom   3H    basis set group =>   3
Atom   4H    basis set group =>   3
Atom   5N    basis set group =>   2
Atom   6H    basis set group =>   3
Atom   7H    basis set group =>   3
Atom   8H    basis set group =>   3
Atom   9Cl   basis set group =>   4
Atom  10Cl   basis set group =>   4
-------------------------
ECP PARAMETER INFORMATION
-------------------------

 Group 1, Type Pt ECP Def2-ECP (replacing 60 core electrons, lmax=3)

Atom   0Pt   ECP group =>   1



           ************************************************************
           *        Program running with 8 parallel MPI-processes     *
           *              working on a common directory               *
           ************************************************************
------------------------------------------------------------------------------
                           ORCA GTO INTEGRAL CALCULATION
                           -- RI-GTO INTEGRALS CHOSEN --
------------------------------------------------------------------------------
------------------------------------------------------------------------------
                   ___                                                        
                  /   \      - P O W E R E D   B Y -                         
                 /     \                                                     
                 |  |  |   _    _      __       _____    __    __             
                 |  |  |  | |  | |    /  \     |  _  \  |  |  /  |          
                  \  \/   | |  | |   /    \    | | | |  |  | /  /          
                 / \  \   | |__| |  /  /\  \   | |_| |  |  |/  /          
                |  |  |   |  __  | /  /__\  \  |    /   |      \           
                |  |  |   | |  | | |   __   |  |    \   |  |\   \          
                \     /   | |  | | |  |  |  |  | |\  \  |  | \   \       
                 \___/    |_|  |_| |__|  |__|  |_| \__\ |__|  \__/        
                                                                              
                      - O R C A' S   B I G   F R I E N D -                    
                                      &                                       
                       - I N T E G R A L  F E E D E R -                       
                                                                              
 v1 FN, 2020, v2 2021                                                         
------------------------------------------------------------------------------


Reading SHARK input file orca_opt.SHARKINP.tmp ... ok
----------------------
SHARK INTEGRAL PACKAGE
----------------------

Number of atoms                             ...     11
Number of basis functions                   ...    126
Number of shells                            ...     58
Maximum angular momentum                    ...      3
Integral batch strategy                     ... SHARK/LIBINT Hybrid
RI-J (if used) integral strategy            ... SPLIT-RIJ (Revised 2003 algorithm where possible)
Printlevel                                  ...      1
Contraction scheme used                     ... SEGMENTED contraction
Coulomb Range Separation                    ... NOT USED
Exchange Range Separation                   ... NOT USED
Finite Nucleus Model                        ... NOT USED
Auxiliary Coulomb fitting basis             ... AVAILABLE
   # of basis functions in Aux-J            ...    355
   # of shells in Aux-J                     ...    117
   Maximum angular momentum in Aux-J        ...      4
Auxiliary J/K fitting basis                 ... NOT available
Auxiliary Correlation fitting basis         ... NOT available
Auxiliary 'external' fitting basis          ... NOT available
Integral threshold                          ...     2.500000e-11
Primitive cut-off                           ...     2.500000e-12
Primitive pair pre-selection threshold      ...     2.500000e-12

Calculating pre-screening integrals         ... done (  0.0 sec) Dimension = 58
Organizing shell pair data                  ... done (  0.0 sec)
Shell pair information
Total number of shell pairs                 ...      1711
Shell pairs after pre-screening             ...      1588
Total number of primitive shell pairs       ...      6098
Primitive shell pairs kept                  ...      4228
          la=0 lb=0:    485 shell pairs
          la=1 lb=0:    558 shell pairs
          la=1 lb=1:    170 shell pairs
          la=2 lb=0:    184 shell pairs
          la=2 lb=1:    112 shell pairs
          la=2 lb=2:     21 shell pairs
          la=3 lb=0:     32 shell pairs
          la=3 lb=1:     19 shell pairs
          la=3 lb=2:      6 shell pairs
          la=3 lb=3:      1 shell pairs

Calculating one electron integrals          ... done (  0.0 sec)
Calculating ECP integrals                   ... done (  0.1 sec)
Calculating RI/J V-Matrix + Cholesky decomp.... done (  0.0 sec)
Calculating Nuclear repulsion               ... done (  0.0 sec) ENN=    406.127806067026 Eh

SHARK setup successfully completed in   0.2 seconds

Maximum memory used throughout the entire GTOINT-calculation: 14.5 MB


           ************************************************************
           *        Program running with 8 parallel MPI-processes     *
           *              working on a common directory               *
           ************************************************************
-------------------------------------------------------------------------------
                                 ORCA SCF
-------------------------------------------------------------------------------

------------
SCF SETTINGS
------------
Hamiltonian:
 Density Functional     Method          .... DFT(GTOs)
 Exchange Functional    Exchange        .... B88
   X-Alpha parameter    XAlpha          ....  0.666667
   Becke's b parameter  XBeta           ....  0.004200
 Correlation Functional Correlation     .... P86
 LDA part of GGA corr.  LDAOpt          .... PW91-LDA
 Gradients option       PostSCFGGA      .... off
   Density functional embedding theory  .... OFF
   NL short-range parameter             ....  4.400000
 RI-approximation to the Coulomb term is turned on
   Number of AuxJ basis functions       .... 355


General Settings:
 Integral files         IntName         .... orca_opt
 Hartree-Fock type      HFTyp           .... RHF
 Total Charge           Charge          ....    0
 Multiplicity           Mult            ....    1
 Number of Electrons    NEL             ....   72
 Basis Dimension        Dim             ....  126
 Nuclear Repulsion      ENuc            ....    406.1278060670 Eh

Convergence Acceleration:
 DIIS                   CNVDIIS         .... on
   Start iteration      DIISMaxIt       ....    12
   Startup error        DIISStart       ....  0.200000
   # of expansion vecs  DIISMaxEq       ....     5
   Bias factor          DIISBfac        ....   1.050
   Max. coefficient     DIISMaxC        ....  10.000
 Trust-Rad. Augm. Hess. CNVTRAH         .... auto
   Auto Start mean grad. ratio tolernc. ....  1.125000
   Auto Start start iteration           ....    20
   Auto Start num. interpolation iter.  ....    10
   Max. Number of Micro iterations      ....    16
   Max. Number of Macro iterations      .... Maxiter - #DIIS iter
   Number of Davidson start vectors     ....     2
   Converg. threshold I  (grad. norm)   ....   1.000e-05
   Converg. threshold II (energy diff.) ....   1.000e-08
   Grad. Scal. Fac. for Micro threshold ....   0.100
   Minimum threshold for Micro iter.    ....   0.010
   NR start threshold (gradient norm)   ....   0.001
   Initial trust radius                 ....   0.400
   Minimum AH scaling param. (alpha)    ....   1.000
   Maximum AH scaling param. (alpha)    .... 1000.000
   Orbital update algorithm             .... Taylor
   White noise on init. David. guess    .... on
   Maximum white noise                  ....   0.010
   Quad. conv. algorithm                .... NR
 SOSCF                  CNVSOSCF        .... off
 Level Shifting         CNVShift        .... on
   Level shift para.    LevelShift      ....    0.2500
   Turn off err/grad.   ShiftErr        ....    0.0010
 Zerner damping         CNVZerner       .... off
 Static damping         CNVDamp         .... on
   Fraction old density DampFac         ....    0.7000
   Max. Damping (<1)    DampMax         ....    0.9800
   Min. Damping (>=0)   DampMin         ....    0.0000
   Turn off err/grad.   DampErr         ....    0.1000
 Fernandez-Rico         CNVRico         .... off

SCF Procedure:
 Maximum # iterations   MaxIter         ....   350
 SCF integral mode      SCFMode         .... Direct
   Integral package                     .... SHARK and LIBINT hybrid scheme
 Reset frequency        DirectResetFreq ....    20
 Integral Threshold     Thresh          ....  2.500e-11 Eh
 Primitive CutOff       TCut            ....  2.500e-12 Eh

Convergence Tolerance:
 Convergence Check Mode ConvCheckMode   .... Total+1el-Energy
 Convergence forced     ConvForced      .... 0
 Energy Change          TolE            ....  1.000e-08 Eh
 1-El. energy change                    ....  1.000e-05 Eh
 DIIS Error             TolErr          ....  5.000e-07


Diagonalization of the overlap matrix:
Smallest eigenvalue                        ... 7.508e-03
Time for diagonalization                   ...    0.005 sec
Threshold for overlap eigenvalues          ... 1.000e-08
Number of eigenvalues below threshold      ... 0
Time for construction of square roots      ...    0.002 sec
Total time needed                          ...    0.007 sec

Time for model grid setup =    0.051 sec

------------------------------
INITIAL GUESS: MODEL POTENTIAL
------------------------------
Loading Hartree-Fock densities                     ... done
  calling /usr/local/bin/orca_5.0.4/orca orca_opt_atom78.inp > orca_opt_atom78.out in order to generate an atomic fitting density for atom 0 (Pt with ECP) on-the-fly... 
    atom 0 (Pt), assumed electronic state with S=3: 1s2 2s2 2p6 3s2 3p6 4s2 3d10 4p6 5s2 4d10 5p6 6s2 4f14 5d8           ... done
Calculating cut-offs                               ... done
Initializing the effective Hamiltonian             ... done
Setting up the integral package (SHARK)            ... done
Starting the Coulomb interaction                   ... done (   0.0 sec)
Reading the grid                                   ... done
Mapping shells                                     ... done
Starting the XC term evaluation                    ... done (   0.0 sec)
  promolecular density results
     # of electrons  =    131.999216853
     EX              =   -428.774713171
     EC              =     -7.669951096
     EX+EC           =   -436.444664266
Transforming the Hamiltonian                       ... done (   0.0 sec)
Diagonalizing the Hamiltonian                      ... done (   0.0 sec)
Back transforming the eigenvectors                 ... done (   0.0 sec)
Now organizing SCF variables                       ... done
                      ------------------
                      INITIAL GUESS DONE (   0.5 sec)
                      ------------------
-------------------
DFT GRID GENERATION
-------------------

General Integration Accuracy     IntAcc      ... 4.388
Radial Grid Type                 RadialGrid  ... OptM3 with GC (2021)
Angular Grid (max. ang.)         AngularGrid ... 4 (Lebedev-302)
Angular grid pruning method      GridPruning ... 4 (adaptive)
Weight generation scheme         WeightScheme... Becke
Basis function cutoff            BFCut       ... 1.0000e-11
Integration weight cutoff        WCut        ... 1.0000e-14
Angular grids for H and He will be reduced by one unit
Partially contracted basis set               ... off
Rotationally invariant grid construction     ... off

Total number of grid points                  ...    57603
Total number of batches                      ...      905
Average number of points per batch           ...       63
Average number of grid points per atom       ...     5237
Time for grid setup =    0.398 sec


--------------------
CPCM SOLVATION MODEL
--------------------
CPCM parameters:
  Epsilon                                         ...      80.4000
  Refrac                                          ...       1.3300
  Rsolv                                           ...       1.3000
  Surface type                                    ... GAUSSIAN VDW
  Epsilon function type                           ...         CPCM
Radii:
 Radius for Pt used is    3.9004 Bohr (=   2.0640 Ang.)
 Radius for N  used is    3.5149 Bohr (=   1.8600 Ang.)
 Radius for H  used is    2.4944 Bohr (=   1.3200 Ang.)
 Radius for Cl used is    3.9684 Bohr (=   2.1000 Ang.)
Calculating surface                               ...        done! (  0.0s)
GEPOL surface points                              ...          766
GEPOL Volume                                      ...     942.9884
GEPOL Surface-area                                ...     574.3558
Calculating surface distance matrix               ...        done! (  0.0s)
Performing Cholesky decomposition & store         ...        done! (  0.0s)
Overall time for CPCM initialization              ...                 0.0s
--------------
SCF ITERATIONS
--------------
ITER       Energy         Delta-E        Max-DP      RMS-DP      [F,P]     Damp
               ***  Starting incremental Fock matrix formation  ***
  0  -1152.7485967234   0.000000000000 0.22391573  0.00369773  0.5075413 0.7000
  1  -1152.8267822773  -0.078185553854 0.14550979  0.00240311  0.3488330 0.7000
  2  -1152.8547230316  -0.027940754340 0.08829847  0.00127012  0.2391464 0.7000
                               ***Turning on DIIS***
  3  -1152.8722858512  -0.017562819544 0.05817291  0.00076702  0.1656006 0.7000
  4  -1152.8851492441  -0.012863392943 0.04205088  0.00049996  0.1155056 0.7000
  5  -1152.8940683259  -0.008919081773 0.09590753  0.00110703  0.0806465 0.0000
  6  -1152.9148134424  -0.020745116520 0.00618384  0.00013675  0.0019653 0.0000
  7  -1152.9148275239  -0.000014081453 0.00124062  0.00003545  0.0010676 0.0000
  8  -1152.9148362376  -0.000008713737 0.00084183  0.00003199  0.0004357 0.0000
  9  -1152.9148376063  -0.000001368729 0.00026723  0.00000737  0.0001204 0.0000
 10  -1152.9148376667  -0.000000060397 0.00016877  0.00000397  0.0001043 0.0000
 11  -1152.9148377035  -0.000000036800 0.00005156  0.00000132  0.0000383 0.0000
 12  -1152.9148377079  -0.000000004370 0.00000453  0.00000016  0.0000038 0.0000
 13  -1152.9148377089  -0.000000001019 0.00000133  0.00000005  0.0000013 0.0000
                            ***DIIS convergence achieved***

               *****************************************************
               *                     SUCCESS                       *
               *           SCF CONVERGED AFTER  14 CYCLES          *
               *****************************************************


----------------
TOTAL SCF ENERGY
----------------

Total Energy       :        -1152.91483771 Eh          -31372.40768 eV

Components:
Nuclear Repulsion  :          406.12780607 Eh           11051.29944 eV
Electronic Energy  :        -1559.04264377 Eh          -42423.70712 eV
One Electron Energy:        -2444.09411227 Eh          -66507.18195 eV
Two Electron Energy:          885.05146849 Eh           24083.47484 eV
CPCM Dielectric    :           -0.06620595 Eh              -1.80156 eV

Virial components:
Potential Energy   :        -2222.95503659 Eh          -60489.68178 eV
Kinetic Energy     :         1070.04019888 Eh           29117.27411 eV
Virial Ratio       :            2.07745002


DFT components:
N(Alpha)           :       36.000017720555 electrons
N(Beta)            :       36.000017720555 electrons
N(Total)           :       72.000035441109 electrons
E(X)               :      -81.402491295441 Eh       
E(C)               :       -3.060850715760 Eh       
E(XC)              :      -84.463342011201 Eh       
DFET-embed. en.    :        0.000000000000 Eh       
CPCM Solvation Model Properties:
Surface-charge          :           -0.01837609
Charge-correction       :            0.00018575 Eh               0.00505 eV
Free-energy (cav+disp)  :  This term is not implemented in the current solvation scheme

---------------
SCF CONVERGENCE
---------------

  Last Energy change         ...    1.4952e-09  Tolerance :   1.0000e-08
  Last MAX-Density change    ...    9.1928e-07  Tolerance :   1.0000e-07
  Last RMS-Density change    ...    3.0364e-08  Tolerance :   5.0000e-09
  Last DIIS Error            ...    6.0938e-07  Tolerance :   5.0000e-07

             **** THE GBW FILE WAS UPDATED (orca_opt.gbw) ****
             **** DENSITY orca_opt.scfp WAS UPDATED ****
             **** ENERGY FILE WAS UPDATED (orca_opt.en.tmp) ****
             **** THE GBW FILE WAS UPDATED (orca_opt.gbw) ****
             **** DENSITY orca_opt.scfp WAS UPDATED ****
----------------
ORBITAL ENERGIES
----------------

  NO   OCC          E(Eh)            E(eV) 
   0   2.0000    -100.648686     -2738.7900 
   1   2.0000    -100.648627     -2738.7884 
   2   2.0000     -14.072820      -382.9409 
   3   2.0000     -14.072782      -382.9399 
   4   2.0000      -9.130717      -248.4594 
   5   2.0000      -9.130662      -248.4580 
   6   2.0000      -6.958698      -189.3558 
   7   2.0000      -6.958661      -189.3548 
   8   2.0000      -6.952071      -189.1755 
   9   2.0000      -6.952011      -189.1738 
  10   2.0000      -6.951999      -189.1735 
  11   2.0000      -6.951936      -189.1718 
  12   2.0000      -3.786329      -103.0313 
  13   2.0000      -2.080087       -56.6020 
  14   2.0000      -2.077080       -56.5202 
  15   2.0000      -2.036832       -55.4250 
  16   2.0000      -0.825758       -22.4700 
  17   2.0000      -0.820160       -22.3177 
  18   2.0000      -0.688368       -18.7314 
  19   2.0000      -0.682126       -18.5616 
  20   2.0000      -0.473799       -12.8927 
  21   2.0000      -0.466946       -12.7063 
  22   2.0000      -0.461290       -12.5523 
  23   2.0000      -0.457297       -12.4437 
  24   2.0000      -0.396167       -10.7803 
  25   2.0000      -0.393043       -10.6953 
  26   2.0000      -0.295660        -8.0453 
  27   2.0000      -0.292069        -7.9476 
  28   2.0000      -0.279883        -7.6160 
  29   2.0000      -0.271037        -7.3753 
  30   2.0000      -0.267344        -7.2748 
  31   2.0000      -0.231865        -6.3094 
  32   2.0000      -0.208276        -5.6675 
  33   2.0000      -0.204829        -5.5737 
  34   2.0000      -0.198371        -5.3980 
  35   2.0000      -0.194061        -5.2807 
  36   0.0000      -0.075879        -2.0648 
  37   0.0000       0.004522         0.1231 
  38   0.0000       0.015822         0.4306 
  39   0.0000       0.046771         1.2727 
  40   0.0000       0.059785         1.6268 
  41   0.0000       0.092516         2.5175 
  42   0.0000       0.094392         2.5685 
  43   0.0000       0.113697         3.0939 
  44   0.0000       0.126484         3.4418 
  45   0.0000       0.130383         3.5479 
  46   0.0000       0.146539         3.9875 
  47   0.0000       0.178507         4.8574 
  48   0.0000       0.317917         8.6510 
  49   0.0000       0.343981         9.3602 
  50   0.0000       0.349377         9.5070 
  51   0.0000       0.436662        11.8822 
  52   0.0000       0.498904        13.5759 
  53   0.0000       0.499343        13.5878 
  54   0.0000       0.507240        13.8027 
  55   0.0000       0.523254        14.2385 
  56   0.0000       0.542088        14.7510 
  57   0.0000       0.554886        15.0992 
  58   0.0000       0.558062        15.1856 
  59   0.0000       0.578047        15.7294 
  60   0.0000       0.616814        16.7844 
  61   0.0000       0.622897        16.9499 
  62   0.0000       0.668787        18.1986 
  63   0.0000       0.682524        18.5724 
  64   0.0000       0.721380        19.6297 
  65   0.0000       0.739184        20.1142 
  66   0.0000       0.749981        20.4080 
  67   0.0000       0.763180        20.7672 
  68   0.0000       0.768697        20.9173 
  69   0.0000       0.779504        21.2114 
  70   0.0000       0.784747        21.3540 
  71   0.0000       0.790480        21.5101 
  72   0.0000       0.812675        22.1140 
  73   0.0000       0.817510        22.2456 
  74   0.0000       0.823869        22.4186 
  75   0.0000       0.828624        22.5480 
  76   0.0000       0.838511        22.8170 
  77   0.0000       0.854619        23.2554 
  78   0.0000       0.857775        23.3413 
  79   0.0000       0.919089        25.0097 
  80   0.0000       0.952039        25.9063 
  81   0.0000       0.953953        25.9584 
  82   0.0000       0.958826        26.0910 
  83   0.0000       1.065272        28.9875 
  84   0.0000       1.117013        30.3955 
  85   0.0000       1.154078        31.4041 
  86   0.0000       1.195149        32.5217 
  87   0.0000       1.232779        33.5456 
  88   0.0000       1.277723        34.7686 
  89   0.0000       1.280316        34.8392 
  90   0.0000       1.329530        36.1784 
  91   0.0000       1.330588        36.2072 
  92   0.0000       1.381653        37.5967 
  93   0.0000       1.418918        38.6107 
  94   0.0000       1.422209        38.7003 
  95   0.0000       1.439069        39.1591 
  96   0.0000       1.439672        39.1755 
  97   0.0000       1.490338        40.5542 
  98   0.0000       1.490720        40.5646 
  99   0.0000       1.516297        41.2605 
 100   0.0000       1.522739        41.4358 
 101   0.0000       1.818109        49.4733 
 102   0.0000       1.833433        49.8903 
 103   0.0000       1.874151        50.9982 
 104   0.0000       1.899247        51.6811 
 105   0.0000       1.967156        53.5290 
 106   0.0000       1.971277        53.6412 
 107   0.0000       1.978116        53.8273 
 108   0.0000       1.979595        53.8675 
 109   0.0000       2.066546        56.2336 
 110   0.0000       2.121843        57.7383 
 111   0.0000       2.321898        63.1820 
 112   0.0000       2.341214        63.7077 
 113   0.0000       2.395541        65.1860 
 114   0.0000       2.638855        71.8069 
 115   0.0000       2.641355        71.8749 
 116   0.0000       2.643296        71.9277 
 117   0.0000       2.664348        72.5006 
 118   0.0000       2.794495        76.0421 
 119   0.0000       2.802947        76.2721 
 120   0.0000       3.162379        86.0527 
 121   0.0000       3.168431        86.2174 
 122   0.0000       3.212694        87.4218 
 123   0.0000       3.248400        88.3935 
 124   0.0000      51.082171      1390.0165 
 125   0.0000     282.883844      7697.6607 

                    ********************************
                    * MULLIKEN POPULATION ANALYSIS *
                    ********************************

-----------------------
MULLIKEN ATOMIC CHARGES
-----------------------
   0 Pt:   -0.160109
   1 N :   -0.148845
   2 H :    0.207799
   3 H :    0.207616
   4 H :    0.177343
   5 N :   -0.148659
   6 H :    0.207897
   7 H :    0.177185
   8 H :    0.207907
   9 Cl:   -0.363963
  10 Cl:   -0.364170
Sum of atomic charges:    0.0000000

--------------------------------
MULLIKEN REDUCED ORBITAL CHARGES
--------------------------------
  0 Pts       :     2.859655  s :     2.859655
      pz      :     2.141054  p :     6.433913
      px      :     2.138941
      py      :     2.153917
      dz2     :     1.896167  d :     8.842243
      dxz     :     1.973731
      dyz     :     1.644160
      dx2y2   :     1.449754
      dxy     :     1.878430
      f0      :     0.002277  f :     0.024299
      f+1     :     0.002519
      f-1     :     0.002415
      f+2     :     0.005686
      f-2     :     0.002158
      f+3     :     0.004696
      f-3     :     0.004547
  1 N s       :     3.376592  s :     3.376592
      pz      :     1.183674  p :     3.757270
      px      :     1.391697
      py      :     1.181899
      dz2     :     0.000837  d :     0.014983
      dxz     :     0.005307
      dyz     :     0.003333
      dx2y2   :     0.002597
      dxy     :     0.002909
  2 H s       :     0.750190  s :     0.750190
      pz      :     0.012063  p :     0.042012
      px      :     0.008741
      py      :     0.021208
  3 H s       :     0.750313  s :     0.750313
      pz      :     0.020816  p :     0.042071
      px      :     0.012376
      py      :     0.008878
  4 H s       :     0.779649  s :     0.779649
      pz      :     0.014615  p :     0.043008
      px      :     0.009855
      py      :     0.018538
  5 N s       :     3.376071  s :     3.376071
      pz      :     1.254369  p :     3.757626
      px      :     1.186034
      py      :     1.317223
      dz2     :     0.002939  d :     0.014962
      dxz     :     0.004005
      dyz     :     0.002163
      dx2y2   :     0.004747
      dxy     :     0.001108
  6 H s       :     0.750063  s :     0.750063
      pz      :     0.013598  p :     0.042040
      px      :     0.009246
      py      :     0.019196
  7 H s       :     0.779770  s :     0.779770
      pz      :     0.009560  p :     0.043045
      px      :     0.024383
      py      :     0.009103
  8 H s       :     0.750051  s :     0.750051
      pz      :     0.018348  p :     0.042042
      px      :     0.014839
      py      :     0.008856
  9 Cls       :     5.934570  s :     5.934570
      pz      :     3.801043  p :    11.412016
      px      :     3.899671
      py      :     3.711301
      dz2     :     0.003674  d :     0.017377
      dxz     :     0.001938
      dyz     :     0.005068
      dx2y2   :     0.003550
      dxy     :     0.003147
 10 Cls       :     5.934589  s :     5.934589
      pz      :     3.901996  p :    11.412217
      px      :     3.607330
      py      :     3.902891
      dz2     :     0.002080  d :     0.017364
      dxz     :     0.004849
      dyz     :     0.000725
      dx2y2   :     0.004715
      dxy     :     0.004995


                     *******************************
                     * LOEWDIN POPULATION ANALYSIS *
                     *******************************

----------------------
LOEWDIN ATOMIC CHARGES
----------------------
   0 Pt:   -0.793001
   1 N :    0.126291
   2 H :    0.132458
   3 H :    0.132118
   4 H :    0.111553
   5 N :    0.126532
   6 H :    0.132333
   7 H :    0.111196
   8 H :    0.132356
   9 Cl:   -0.105806
  10 Cl:   -0.106032

-------------------------------
LOEWDIN REDUCED ORBITAL CHARGES
-------------------------------
  0 Pts       :     2.770213  s :     2.770213
      pz      :     2.205610  p :     6.728000
      px      :     2.271614
      py      :     2.250776
      dz2     :     1.951073  d :     9.252465
      dxz     :     2.027725
      dyz     :     1.744905
      dx2y2   :     1.579927
      dxy     :     1.948835
      f0      :     0.003952  f :     0.042323
      f+1     :     0.004567
      f-1     :     0.003881
      f+2     :     0.010292
      f-2     :     0.003411
      f+3     :     0.008324
      f-3     :     0.007894
  1 N s       :     3.058233  s :     3.058233
      pz      :     1.197755  p :     3.777857
      px      :     1.381544
      py      :     1.198557
      dz2     :     0.002982  d :     0.037619
      dxz     :     0.011876
      dyz     :     0.009617
      dx2y2   :     0.007326
      dxy     :     0.005818
  2 H s       :     0.755063  s :     0.755063
      pz      :     0.028884  p :     0.112479
      px      :     0.026859
      py      :     0.056736
  3 H s       :     0.755178  s :     0.755178
      pz      :     0.053134  p :     0.112704
      px      :     0.041036
      py      :     0.018534
  4 H s       :     0.772519  s :     0.772519
      pz      :     0.037090  p :     0.115928
      px      :     0.033033
      py      :     0.045805
  5 N s       :     3.057760  s :     3.057760
      pz      :     1.259463  p :     3.778117
      px      :     1.201749
      py      :     1.316905
      dz2     :     0.006254  d :     0.037591
      dxz     :     0.010414
      dyz     :     0.006410
      dx2y2   :     0.012530
      dxy     :     0.001983
  6 H s       :     0.755041  s :     0.755041
      pz      :     0.033322  p :     0.112625
      px      :     0.019564
      py      :     0.059739
  7 H s       :     0.772653  s :     0.772653
      pz      :     0.025304  p :     0.116150
      px      :     0.066905
      py      :     0.023941
  8 H s       :     0.755051  s :     0.755051
      pz      :     0.053305  p :     0.112592
      px      :     0.035642
      py      :     0.023645
  9 Cls       :     5.759682  s :     5.759682
      pz      :     3.772439  p :    11.326875
      px      :     3.867569
      py      :     3.686867
      dz2     :     0.003987  d :     0.019249
      dxz     :     0.002190
      dyz     :     0.005597
      dx2y2   :     0.004060
      dxy     :     0.003415
 10 Cls       :     5.759707  s :     5.759707
      pz      :     3.866497  p :    11.327090
      px      :     3.595108
      py      :     3.865486
      dz2     :     0.002295  d :     0.019235
      dxz     :     0.005355
      dyz     :     0.000749
      dx2y2   :     0.005162
      dxy     :     0.005674


                      *****************************
                      * MAYER POPULATION ANALYSIS *
                      *****************************

  NA   - Mulliken gross atomic population
  ZA   - Total nuclear charge
  QA   - Mulliken gross atomic charge
  VA   - Mayer's total valence
  BVA  - Mayer's bonded valence
  FA   - Mayer's free valence

  ATOM       NA         ZA         QA         VA         BVA        FA
  0 Pt    18.1601    18.0000    -0.1601     3.0570     3.0570     0.0000
  1 N      7.1488     7.0000    -0.1488     3.5282     3.5282     0.0000
  2 H      0.7922     1.0000     0.2078     0.9448     0.9448    -0.0000
  3 H      0.7924     1.0000     0.2076     0.9449     0.9449    -0.0000
  4 H      0.8227     1.0000     0.1773     0.9952     0.9952     0.0000
  5 N      7.1487     7.0000    -0.1487     3.5285     3.5285     0.0000
  6 H      0.7921     1.0000     0.2079     0.9448     0.9448    -0.0000
  7 H      0.8228     1.0000     0.1772     0.9954     0.9954     0.0000
  8 H      0.7921     1.0000     0.2079     0.9448     0.9448    -0.0000
  9 Cl    17.3640    17.0000    -0.3640     1.0774     1.0774     0.0000
 10 Cl    17.3642    17.0000    -0.3642     1.0771     1.0771    -0.0000

  Mayer bond orders larger than 0.100000
B(  0-Pt,  1-N ) :   0.6159 B(  0-Pt,  5-N ) :   0.6159 B(  0-Pt,  9-Cl) :   0.8918 
B(  0-Pt, 10-Cl) :   0.8917 B(  1-N ,  2-H ) :   0.9342 B(  1-N ,  3-H ) :   0.9344 
B(  1-N ,  4-H ) :   0.9189 B(  1-N , 10-Cl) :   0.1134 B(  5-N ,  6-H ) :   0.9343 
B(  5-N ,  7-H ) :   0.9191 B(  5-N ,  8-H ) :   0.9342 B(  5-N ,  9-Cl) :   0.1135 


-------
TIMINGS
-------

Total SCF time: 0 days 0 hours 0 min 3 sec 

Total time                  ....       3.525 sec
Sum of individual times     ....       3.402 sec  ( 96.5%)

Fock matrix formation       ....       2.420 sec  ( 68.7%)
  Split-RI-J                ....       0.360 sec  ( 14.9% of F)
  XC integration            ....       0.753 sec  ( 31.1% of F)
    Basis function eval.    ....       0.214 sec  ( 28.5% of XC)
    Density eval.           ....       0.154 sec  ( 20.5% of XC)
    XC-Functional eval.     ....       0.051 sec  (  6.7% of XC)
    XC-Potential eval.      ....       0.134 sec  ( 17.7% of XC)
Diagonalization             ....       0.043 sec  (  1.2%)
Density matrix formation    ....       0.002 sec  (  0.1%)
Population analysis         ....       0.004 sec  (  0.1%)
Initial guess               ....       0.446 sec  ( 12.6%)
Orbital Transformation      ....       0.000 sec  (  0.0%)
Orbital Orthonormalization  ....       0.000 sec  (  0.0%)
DIIS solution               ....       0.039 sec  (  1.1%)
Grid generation             ....       0.449 sec  ( 12.8%)

Maximum memory used throughout the entire SCF-calculation: 18.8 MB


-------------------------------------------------------------------------------
                          DFT DISPERSION CORRECTION                            
                                                                               
                                 DFTD4 V2.5                                    
-------------------------------------------------------------------------------
The BP86 functional is recognized
Active option DFTDOPT                   ...         5   

Starting D4
-------------------------   ----------------
Dispersion correction           -0.015787507
-------------------------   ----------------


-------------------------   --------------------
FINAL SINGLE POINT ENERGY     -1152.930625214452
-------------------------   --------------------



           ************************************************************
           *        Program running with 8 parallel MPI-processes     *
           *              working on a common directory               *
           ************************************************************
------------------------------------------------------------------------------
                         ORCA SCF GRADIENT CALCULATION
------------------------------------------------------------------------------

Gradient of the Kohn-Sham DFT energy:
Kohn-Sham wavefunction type      ... RKS
Hartree-Fock exchange scaling    ...    0.000
Number of operators              ...    1
Number of atoms                  ...   11
Basis set dimensions             ...  126
Integral neglect threshold       ... 2.5e-11
Integral primitive cutoff        ... 2.5e-12
SHARK Integral package           ... ON

Nuc. rep. gradient       (SHARK) ... done (  0.0 sec)
HCore & Overlap gradient (SHARK) ... done (  0.0 sec)
ECP gradient             (SHARK) ... done (  0.2 sec)
RI-J gradient            (SHARK) ... done (  0.2 sec)
Exchange-correlation gradient    ... done
Dispersion correction            ... Starting D4
Starting D4
Starting D4
Starting D4
Starting D4
Starting D4


------------------- 
Dispersion Gradient 
------------------- 
   1  :   -0.000063131   -0.000081471    0.000031754
   2  :    0.000394153    0.000074276    0.000087316
   3  :    0.000116636    0.000153285    0.000095028
   4  :    0.000186042    0.000019371   -0.000105999
   5  :    0.000110314   -0.000081849    0.000092678
   6  :   -0.000088945    0.000320040   -0.000240990
   7  :   -0.000004070    0.000214627    0.000014464
   8  :   -0.000140233    0.000044873   -0.000077837
   9  :    0.000065588    0.000081619   -0.000187743
  10  :    0.000122178   -0.000580413    0.000424945
  11  :   -0.000698534   -0.000164359   -0.000133617

  |G| =    0.001231875

Starting D4
Starting D4
done

------------------
CARTESIAN GRADIENT
------------------

   1   Pt  :   -0.001277143   -0.001885865    0.000646417
   2   N   :    0.000912729    0.000759626   -0.000808487
   3   H   :    0.000088116   -0.000164717    0.000155129
   4   H   :   -0.000266220   -0.000149882    0.000566651
   5   H   :   -0.000175742   -0.000861798    0.000551828
   6   N   :    0.000160315    0.001367239   -0.000548033
   7   H   :   -0.000249402   -0.000315302   -0.000155133
   8   H   :   -0.000363733   -0.000575673    0.000243697
   9   H   :   -0.000268630   -0.000110905    0.000079599
  10   Cl  :    0.000133487    0.001298556   -0.000798342
  11   Cl  :    0.001306224    0.000638720    0.000066675

Difference to translation invariance:
           :    0.0000000000    0.0000000000    0.0000000000

Difference to rotation invariance:
           :    0.0002151272    0.0002584233    0.0000356841

Norm of the cartesian gradient     ...    0.0040835870
RMS gradient                       ...    0.0007108613
MAX gradient                       ...    0.0018858653

-------
TIMINGS
-------

Total SCF gradient time            ...        0.983 sec

One electron gradient       ....       0.262 sec  ( 26.6%)
RI-J Coulomb gradient       ....       0.194 sec  ( 19.8%)
XC gradient                 ....       0.304 sec  ( 31.0%)
CPCM gradient               ....       0.062 sec  (  6.3%)
   A-Matrix (El+Nuc)        ....       0.018 sec  (  1.8%)
   Potential                ....       0.044 sec  (  4.5%)

Maximum memory used throughout the entire SCFGRAD-calculation: 27.7 MB
------------------------------------------------------------------------------
                         ORCA GEOMETRY RELAXATION STEP
------------------------------------------------------------------------------

Reading the OPT-File                    .... done
Getting information on internals        .... done
Copying old internal coords+grads       .... done
Making the new internal coordinates     .... (new redundants).... done
Validating the new internal coordinates .... (new redundants).... done
Calculating the B-matrix                .... done
Calculating the G,G- and P matrices     .... done
Transforming gradient to internals      .... done
Projecting the internal gradient        .... done
Number of atoms                         ....  11
Number of internal coordinates          ....  38
Current Energy                          .... -1152.930625214 Eh
Current gradient norm                   ....     0.004083587 Eh/bohr
Maximum allowed component of the step   ....  0.300
Current trust radius                    ....  0.300
Evaluating the initial hessian          ....  (Almloef) done
Projecting the Hessian                  .... done
Forming the augmented Hessian           .... done
Diagonalizing the augmented Hessian     .... done
Last element of RFO vector              ....  0.997250722
Lowest eigenvalues of augmented Hessian:
 -0.000158660  0.001681187  0.001681722  0.001682031  0.001688596
Length of the computed step             ....  0.074305549
The final length of the internal step   ....  0.074305549
Converting the step to cartesian space:
 Initial RMS(Int)=    0.0120539518
Transforming coordinates:
 Iter   0:  RMS(Cart)=    0.0229351341 RMS(Int)=    1.0167245457
 Iter   1:  RMS(Cart)=    0.0004153785 RMS(Int)=    0.0002707178
 Iter   2:  RMS(Cart)=    0.0000050090 RMS(Int)=    0.0000033108
 Iter   3:  RMS(Cart)=    0.0000001109 RMS(Int)=    0.0000000679
 Iter   4:  RMS(Cart)=    0.0000000022 RMS(Int)=    0.0000000014
done
Storing new coordinates                 .... done

                                .--------------------.
          ----------------------|Geometry convergence|-------------------------
          Item                value                   Tolerance       Converged
          ---------------------------------------------------------------------
          RMS gradient        0.0007307488            0.0001000000      NO
          MAX gradient        0.0026363394            0.0003000000      NO
          RMS step            0.0120539518            0.0020000000      NO
          MAX step            0.0251813144            0.0040000000      NO
          ........................................................
          Max(Bonds)      0.0133      Max(Angles)    0.70
          Max(Dihed)        1.26      Max(Improp)    0.00
          ---------------------------------------------------------------------

The optimization has not yet converged - more geometry cycles are needed


    ---------------------------------------------------------------------------
                         Redundant Internal Coordinates
                            (Angstroem and degrees)

        Definition                    Value    dE/dq     Step     New-Value
    ----------------------------------------------------------------------------
     1. B(N   1,Pt  0)                2.0731  0.000514 -0.0043    2.0688   
     2. B(H   2,N   1)                1.0322 -0.000060  0.0001    1.0322   
     3. B(H   3,N   1)                1.0314 -0.000628  0.0008    1.0323   
     4. B(H   4,N   1)                1.0356  0.000869 -0.0012    1.0344   
     5. B(N   5,Pt  0)                2.0737  0.000627 -0.0052    2.0685   
     6. B(H   6,N   5)                1.0317 -0.000387  0.0005    1.0322   
     7. B(H   7,N   5)                1.0347  0.000283 -0.0004    1.0343   
     8. B(H   8,N   5)                1.0319 -0.000215  0.0003    1.0321   
     9. B(Cl  9,Pt  0)                2.3448 -0.001477  0.0133    2.3581   
    10. B(Cl 10,Pt  0)                2.3449 -0.001406  0.0127    2.3576   
    11. A(N   1,Pt  0,Cl  9)           85.81 -0.001504    0.39     86.20   
    12. A(N   1,Pt  0,N   5)           93.41  0.002636   -0.70     92.72   
    13. A(N   5,Pt  0,Cl 10)           85.83 -0.001403    0.37     86.19   
    14. A(Cl  9,Pt  0,Cl 10)           94.95  0.000271   -0.06     94.89   
    15. A(H   2,N   1,H   3)          107.24  0.000026   -0.08    107.16   
    16. A(H   3,N   1,H   4)          107.27  0.000213   -0.01    107.27   
    17. A(H   2,N   1,H   4)          107.27  0.000153    0.01    107.29   
    18. A(Pt  0,N   1,H   3)          113.37  0.000244   -0.09    113.28   
    19. A(Pt  0,N   1,H   4)          107.86 -0.000921    0.26    108.12   
    20. A(Pt  0,N   1,H   2)          113.51  0.000290   -0.09    113.41   
    21. A(H   7,N   5,H   8)          107.37  0.000257   -0.01    107.37   
    22. A(H   6,N   5,H   8)          107.24  0.000110   -0.10    107.14   
    23. A(Pt  0,N   5,H   8)          113.32  0.000163   -0.07    113.25   
    24. A(H   6,N   5,H   7)          107.39  0.000252   -0.01    107.37   
    25. A(Pt  0,N   5,H   7)          107.86 -0.001022    0.28    108.15   
    26. A(Pt  0,N   5,H   6)          113.35  0.000258   -0.09    113.26   
    27. D(H   4,N   1,Pt  0,N   5)    179.63 -0.000047    0.94    180.57   
    28. D(H   3,N   1,Pt  0,Cl  9)    118.33 -0.000187   -0.92    117.41   
    29. D(H   2,N   1,Pt  0,N   5)     60.93  0.000207    0.80     61.73   
    30. D(H   4,N   1,Pt  0,Cl  9)     -0.29  0.000017   -1.03     -1.32   
    31. D(H   3,N   1,Pt  0,N   5)    -61.75 -0.000250    1.05    -60.70   
    32. D(H   2,N   1,Pt  0,Cl  9)   -118.99  0.000271   -1.17   -120.16   
    33. D(H   6,N   5,Pt  0,N   1)    -61.28 -0.000200   -0.84    -62.12   
    34. D(H   8,N   5,Pt  0,Cl 10)   -118.69  0.000212    1.00   -117.69   
    35. D(H   8,N   5,Pt  0,N   1)     61.25  0.000279   -1.10     60.14   
    36. D(H   7,N   5,Pt  0,Cl 10)      0.03 -0.000053    1.14      1.17   
    37. D(H   7,N   5,Pt  0,N   1)    179.97  0.000014   -0.96    179.01   
    38. D(H   6,N   5,Pt  0,Cl 10)    118.78 -0.000267    1.26    120.04   
    ----------------------------------------------------------------------------

         *************************************************************
         *                GEOMETRY OPTIMIZATION CYCLE   2            *
         *************************************************************
---------------------------------
CARTESIAN COORDINATES (ANGSTROEM)
---------------------------------
  Pt    -2.884441    0.161996    0.204286
  N     -0.899232    0.643405    0.531718
  H     -0.769854    1.554517    0.999325
  H     -0.336036    0.662364   -0.333180
  H     -0.490439   -0.079394    1.148480
  N     -3.183000    1.804752   -1.016751
  H     -3.039612    2.704525   -0.531686
  H     -4.162403    1.785547   -1.348813
  H     -2.574934    1.808432   -1.850750
  Cl    -2.480100   -1.739117    1.539579
  Cl    -5.125949   -0.397027   -0.266208

----------------------------
CARTESIAN COORDINATES (A.U.)
----------------------------
  NO LB      ZA    FRAG     MASS         X           Y           Z
   0 Pt   18.0000*   0   195.090   -5.450803    0.306129    0.386044
   1 N     7.0000    0    14.007   -1.699302    1.215860    1.004801
   2 H     1.0000    0     1.008   -1.454813    2.937612    1.888450
   3 H     1.0000    0     1.008   -0.635017    1.251686   -0.629619
   4 H     1.0000    0     1.008   -0.926796   -0.150033    2.170314
   5 N     7.0000    0    14.007   -6.014998    3.410487   -1.921380
   6 H     1.0000    0     1.008   -5.744034    5.110812   -1.004741
   7 H     1.0000    0     1.008   -7.865803    3.374195   -2.548887
   8 H     1.0000    0     1.008   -4.865920    3.417441   -3.497410
   9 Cl   17.0000    0    35.453   -4.686710   -3.286454    2.909382
  10 Cl   17.0000    0    35.453   -9.686640   -0.750273   -0.503060
* core charge reduced due to ECP

--------------------------------
INTERNAL COORDINATES (ANGSTROEM)
--------------------------------
 Pt     0   0   0     0.000000000000     0.00000000     0.00000000
 N      1   0   0     2.068820694321     0.00000000     0.00000000
 H      2   1   0     1.032240384220   113.41322234     0.00000000
 H      2   1   3     1.032277592909   113.27858015   237.57470083
 H      2   1   3     1.034382602126   108.11948790   118.84114367
 N      1   2   3     2.068504905766    92.70114721    61.72544942
 H      6   1   2     1.032201469617   113.25562632   297.87830548
 H      6   1   2     1.034343077064   108.14552089   179.00711357
 H      6   1   2     1.032139781429   113.25210080    60.14471559
 Cl     1   2   3     2.358120038169    86.18369059   239.83923330
 Cl     1   2   3     2.357590227579   177.56715036   124.13774777

---------------------------
INTERNAL COORDINATES (A.U.)
---------------------------
 Pt     0   0   0     0.000000000000     0.00000000     0.00000000
 N      1   0   0     3.909504532455     0.00000000     0.00000000
 H      2   1   0     1.950651630550   113.41322234     0.00000000
 H      2   1   3     1.950721944781   113.27858015   237.57470083
 H      2   1   3     1.954699835712   108.11948790   118.84114367
 N      1   2   3     3.908907778570    92.70114721    61.72544942
 H      6   1   2     1.950578092607   113.25562632   297.87830548
 H      6   1   2     1.954625144168   108.14552089   179.00711357
 H      6   1   2     1.950461518826   113.25210080    60.14471559
 Cl     1   2   3     4.456201063051    86.18369059   239.83923330
 Cl     1   2   3     4.455199866133   177.56715036   124.13774777



           ************************************************************
           *        Program running with 8 parallel MPI-processes     *
           *              working on a common directory               *
           ************************************************************
------------------------------------------------------------------------------
                   ___                                                        
                  /   \      - P O W E R E D   B Y -                         
                 /     \                                                     
                 |  |  |   _    _      __       _____    __    __             
                 |  |  |  | |  | |    /  \     |  _  \  |  |  /  |          
                  \  \/   | |  | |   /    \    | | | |  |  | /  /          
                 / \  \   | |__| |  /  /\  \   | |_| |  |  |/  /          
                |  |  |   |  __  | /  /__\  \  |    /   |      \           
                |  |  |   | |  | | |   __   |  |    \   |  |\   \          
                \     /   | |  | | |  |  |  |  | |\  \  |  | \   \       
                 \___/    |_|  |_| |__|  |__|  |_| \__\ |__|  \__/        
                                                                              
                      - O R C A' S   B I G   F R I E N D -                    
                                      &                                       
                       - I N T E G R A L  F E E D E R -                       
                                                                              
 v1 FN, 2020, v2 2021                                                         
------------------------------------------------------------------------------


Reading SHARK input file orca_opt.SHARKINP.tmp ... ok
----------------------
SHARK INTEGRAL PACKAGE
----------------------

Number of atoms                             ...     11
Number of basis functions                   ...    126
Number of shells                            ...     58
Maximum angular momentum                    ...      3
Integral batch strategy                     ... SHARK/LIBINT Hybrid
RI-J (if used) integral strategy            ... SPLIT-RIJ (Revised 2003 algorithm where possible)
Printlevel                                  ...      1
Contraction scheme used                     ... SEGMENTED contraction
Coulomb Range Separation                    ... NOT USED
Exchange Range Separation                   ... NOT USED
Finite Nucleus Model                        ... NOT USED
Auxiliary Coulomb fitting basis             ... AVAILABLE
   # of basis functions in Aux-J            ...    355
   # of shells in Aux-J                     ...    117
   Maximum angular momentum in Aux-J        ...      4
Auxiliary J/K fitting basis                 ... NOT available
Auxiliary Correlation fitting basis         ... NOT available
Auxiliary 'external' fitting basis          ... NOT available
Integral threshold                          ...     2.500000e-11
Primitive cut-off                           ...     2.500000e-12
Primitive pair pre-selection threshold      ...     2.500000e-12

Calculating pre-screening integrals         ... done (  0.0 sec) Dimension = 58
Organizing shell pair data                  ... done (  0.0 sec)
Shell pair information
Total number of shell pairs                 ...      1711
Shell pairs after pre-screening             ...      1588
Total number of primitive shell pairs       ...      6098
Primitive shell pairs kept                  ...      4233
          la=0 lb=0:    485 shell pairs
          la=1 lb=0:    558 shell pairs
          la=1 lb=1:    170 shell pairs
          la=2 lb=0:    184 shell pairs
          la=2 lb=1:    112 shell pairs
          la=2 lb=2:     21 shell pairs
          la=3 lb=0:     32 shell pairs
          la=3 lb=1:     19 shell pairs
          la=3 lb=2:      6 shell pairs
          la=3 lb=3:      1 shell pairs

Calculating one electron integrals          ... done (  0.0 sec)
Calculating ECP integrals                   ... done (  0.1 sec)
Calculating RI/J V-Matrix + Cholesky decomp.... done (  0.0 sec)
Calculating Nuclear repulsion               ... done (  0.0 sec) ENN=    405.072741992362 Eh

SHARK setup successfully completed in   0.2 seconds

Maximum memory used throughout the entire GTOINT-calculation: 14.5 MB


           ************************************************************
           *        Program running with 8 parallel MPI-processes     *
           *              working on a common directory               *
           ************************************************************

Diagonalization of the overlap matrix:
Smallest eigenvalue                        ... 7.695e-03
Time for diagonalization                   ...    0.002 sec
Threshold for overlap eigenvalues          ... 1.000e-08
Number of eigenvalues below threshold      ... 0
Time for construction of square roots      ...    0.002 sec
Total time needed                          ...    0.004 sec

-------------------
DFT GRID GENERATION
-------------------

General Integration Accuracy     IntAcc      ... 4.388
Radial Grid Type                 RadialGrid  ... OptM3 with GC (2021)
Angular Grid (max. ang.)         AngularGrid ... 4 (Lebedev-302)
Angular grid pruning method      GridPruning ... 4 (adaptive)
Weight generation scheme         WeightScheme... Becke
Basis function cutoff            BFCut       ... 1.0000e-11
Integration weight cutoff        WCut        ... 1.0000e-14
Angular grids for H and He will be reduced by one unit
Partially contracted basis set               ... off
Rotationally invariant grid construction     ... off

Total number of grid points                  ...    57595
Total number of batches                      ...      906
Average number of points per batch           ...       63
Average number of grid points per atom       ...     5236
Time for grid setup =    0.240 sec


--------------------
CPCM SOLVATION MODEL
--------------------
CPCM parameters:
  Epsilon                                         ...      80.4000
  Refrac                                          ...       1.3300
  Rsolv                                           ...       1.3000
  Surface type                                    ... GAUSSIAN VDW
  Epsilon function type                           ...         CPCM
Radii:
 Radius for Pt used is    3.9004 Bohr (=   2.0640 Ang.)
 Radius for N  used is    3.5149 Bohr (=   1.8600 Ang.)
 Radius for H  used is    2.4944 Bohr (=   1.3200 Ang.)
 Radius for Cl used is    3.9684 Bohr (=   2.1000 Ang.)
Calculating surface                               ...        done! (  0.0s)
GEPOL surface points                              ...          770
GEPOL Volume                                      ...     943.8486
GEPOL Surface-area                                ...     575.2993
Calculating surface distance matrix               ...        done! (  0.0s)
Performing Cholesky decomposition & store         ...        done! (  0.0s)
Overall time for CPCM initialization              ...                 0.0s
--------------
SCF ITERATIONS
--------------
ITER       Energy         Delta-E        Max-DP      RMS-DP      [F,P]     Damp
               ***  Starting incremental Fock matrix formation  ***
  0  -1152.9142489837   0.000000000000 0.00188083  0.00009760  0.0636956 0.7000
  1  -1152.9143789314  -0.000129947659 0.00201048  0.00009780  0.0446203 0.7000
                               ***Turning on DIIS***
  2  -1152.9144804033  -0.000101471935 0.00555353  0.00026884  0.0312366 0.0000
  3  -1152.9147218462  -0.000241442892 0.00131416  0.00005784  0.0003693 0.0000
  4  -1152.9147247748  -0.000002928553 0.00019174  0.00000946  0.0003466 0.0000
  5  -1152.9147251586  -0.000000383852 0.00008755  0.00000366  0.0001064 0.0000
  6  -1152.9147251714  -0.000000012814 0.00008021  0.00000267  0.0000590 0.0000
  7  -1152.9147251887  -0.000000017260 0.00004412  0.00000115  0.0000237 0.0000
  8  -1152.9147251923  -0.000000003612 0.00002014  0.00000049  0.0000129 0.0000
  9  -1152.9147251924  -0.000000000090 0.00000535  0.00000013  0.0000041 0.0000
                            ***DIIS convergence achieved***

               *****************************************************
               *                     SUCCESS                       *
               *           SCF CONVERGED AFTER  10 CYCLES          *
               *****************************************************

Total Energy       :        -1152.91472519 Eh          -31372.40461 eV
  Last Energy change         ...    1.6935e-09  Tolerance :   1.0000e-08
  Last MAX-Density change    ...    8.8333e-07  Tolerance :   1.0000e-07
             **** THE GBW FILE WAS UPDATED (orca_opt.gbw) ****
             **** DENSITY orca_opt.scfp WAS UPDATED ****
             **** ENERGY FILE WAS UPDATED (orca_opt.en.tmp) ****
             **** THE GBW FILE WAS UPDATED (orca_opt.gbw) ****
             **** DENSITY orca_opt.scfp WAS UPDATED ****
Total SCF time: 0 days 0 hours 0 min 2 sec 

Maximum memory used throughout the entire SCF-calculation: 18.9 MB


-------------------------------------------------------------------------------
                          DFT DISPERSION CORRECTION                            
                                                                               
                                 DFTD4 V2.5                                    
-------------------------------------------------------------------------------
Starting D4
-------------------------   ----------------
Dispersion correction           -0.015771223
-------------------------   ----------------


-------------------------   --------------------
FINAL SINGLE POINT ENERGY     -1152.930496413901
-------------------------   --------------------



           ************************************************************
           *        Program running with 8 parallel MPI-processes     *
           *              working on a common directory               *
           ************************************************************
------------------------------------------------------------------------------
                         ORCA SCF GRADIENT CALCULATION
------------------------------------------------------------------------------

Gradient of the Kohn-Sham DFT energy:
Kohn-Sham wavefunction type      ... RKS
Hartree-Fock exchange scaling    ...    0.000
Number of operators              ...    1
Number of atoms                  ...   11
Basis set dimensions             ...  126
Integral neglect threshold       ... 2.5e-11
Integral primitive cutoff        ... 2.5e-12
SHARK Integral package           ... ON

Nuc. rep. gradient       (SHARK) ... done (  0.0 sec)
HCore & Overlap gradient (SHARK) ... done (  0.0 sec)
ECP gradient             (SHARK) ... done (  0.2 sec)
RI-J gradient            (SHARK) ... done (  0.1 sec)
Exchange-correlation gradient    ... done
Dispersion correction            ... Starting D4
Starting D4
Starting D4
Starting D4
Starting D4
Starting D4
Starting D4


------------------- 
Dispersion Gradient 
------------------- 
   1  :   -0.000063176   -0.000077311    0.000034870
   2  :    0.000389642    0.000081773    0.000082699
   3  :    0.000116707    0.000153339    0.000093742
   4  :    0.000182523    0.000019287   -0.000106916
   5  :    0.000112610   -0.000081687    0.000092625
   6  :   -0.000081142    0.000320947   -0.000236162
   7  :   -0.000003138    0.000213834    0.000013792
   8  :   -0.000139914    0.000046261   -0.000079365
   9  :    0.000066918    0.000079223   -0.000185304
  10  :    0.000124199   -0.000588203    0.000428358
  11  :   -0.000705231   -0.000167463   -0.000138339

  |G| =    0.001238431

Starting D4
done

------------------
CARTESIAN GRADIENT
------------------

   1   Pt  :   -0.000601827    0.004194285    0.003928040
   2   N   :    0.000708005   -0.000515833   -0.001665287
   3   H   :   -0.000224712   -0.000108981   -0.000017846
   4   H   :    0.000312464    0.000038684    0.000221542
   5   H   :   -0.000520711   -0.000233738    0.000091184
   6   N   :    0.000819617   -0.000403595   -0.001488998
   7   H   :    0.000009725   -0.000243121    0.000168596
   8   H   :   -0.000127775   -0.000518264    0.000396754
   9   H   :   -0.000223842    0.000227901   -0.000077410
  10   Cl  :    0.000726029   -0.001601316   -0.000188289
  11   Cl  :   -0.000876974   -0.000836022   -0.001368286

Difference to translation invariance:
           :   -0.0000000001   -0.0000000000   -0.0000000000

Difference to rotation invariance:
           :    0.0002231302    0.0002053730    0.0003533144

Norm of the cartesian gradient     ...    0.0069011614
RMS gradient                       ...    0.0012013380
MAX gradient                       ...    0.0041942851

-------
TIMINGS
-------

Total SCF gradient time            ...        0.924 sec

One electron gradient       ....       0.264 sec  ( 28.6%)
RI-J Coulomb gradient       ....       0.149 sec  ( 16.2%)
XC gradient                 ....       0.297 sec  ( 32.1%)
CPCM gradient               ....       0.060 sec  (  6.5%)
   A-Matrix (El+Nuc)        ....       0.018 sec  (  1.9%)
   Potential                ....       0.043 sec  (  4.6%)

Maximum memory used throughout the entire SCFGRAD-calculation: 27.7 MB
------------------------------------------------------------------------------
                         ORCA GEOMETRY RELAXATION STEP
------------------------------------------------------------------------------

[...]
CPCM Dielectric    :           -0.06827231 Eh              -1.85778 eV

Virial components:
Potential Energy   :        -2222.94663358 Eh          -60489.45312 eV
Kinetic Energy     :         1070.03169436 Eh           29117.04269 eV
Virial Ratio       :            2.07745868


DFT components:
N(Alpha)           :       36.000015886511 electrons
N(Beta)            :       36.000015886511 electrons
N(Total)           :       72.000031773023 electrons
E(X)               :      -81.401262925381 Eh       
E(C)               :       -3.060376991979 Eh       
E(XC)              :      -84.461639917360 Eh       
DFET-embed. en.    :        0.000000000000 Eh       
CPCM Solvation Model Properties:
Surface-charge          :           -0.01833084
Charge-correction       :            0.00019659 Eh               0.00535 eV
Free-energy (cav+disp)  :  This term is not implemented in the current solvation scheme

---------------
SCF CONVERGENCE
---------------

  Last Energy change         ...    9.4474e-10  Tolerance :   1.0000e-08
  Last MAX-Density change    ...    1.6762e-06  Tolerance :   1.0000e-07
  Last RMS-Density change    ...    4.3160e-08  Tolerance :   5.0000e-09
  Last DIIS Error            ...    7.1463e-07  Tolerance :   5.0000e-07

             **** THE GBW FILE WAS UPDATED (orca_opt.gbw) ****
             **** DENSITY orca_opt.scfp WAS UPDATED ****
             **** ENERGY FILE WAS UPDATED (orca_opt.en.tmp) ****
             **** THE GBW FILE WAS UPDATED (orca_opt.gbw) ****
             **** DENSITY orca_opt.scfp WAS UPDATED ****
----------------
ORBITAL ENERGIES
----------------

  NO   OCC          E(Eh)            E(eV) 
   0   2.0000    -100.647935     -2738.7695 
   1   2.0000    -100.647907     -2738.7688 
   2   2.0000     -14.073658      -382.9637 
   3   2.0000     -14.073579      -382.9616 
   4   2.0000      -9.129892      -248.4370 
   5   2.0000      -9.129875      -248.4365 
   6   2.0000      -6.957888      -189.3338 
   7   2.0000      -6.957863      -189.3331 
   8   2.0000      -6.951260      -189.1534 
   9   2.0000      -6.951252      -189.1532 
  10   2.0000      -6.951167      -189.1509 
  11   2.0000      -6.951156      -189.1506 
  12   2.0000      -3.786385      -103.0328 
  13   2.0000      -2.079803       -56.5943 
  14   2.0000      -2.077430       -56.5298 
  15   2.0000      -2.036883       -55.4264 
  16   2.0000      -0.826762       -22.4973 
  17   2.0000      -0.820754       -22.3338 
  18   2.0000      -0.687273       -18.7017 
  19   2.0000      -0.680962       -18.5299 
  20   2.0000      -0.474710       -12.9175 
  21   2.0000      -0.467534       -12.7222 
  22   2.0000      -0.461128       -12.5479 
  23   2.0000      -0.457066       -12.4374 
  24   2.0000      -0.397200       -10.8084 
  25   2.0000      -0.394048       -10.7226 
  26   2.0000      -0.295009        -8.0276 
  27   2.0000      -0.291236        -7.9249 
  28   2.0000      -0.280035        -7.6201 
  29   2.0000      -0.270272        -7.3545 
  30   2.0000      -0.266336        -7.2474 
  31   2.0000      -0.230962        -6.2848 
  32   2.0000      -0.208277        -5.6675 
  33   2.0000      -0.204452        -5.5634 
  34   2.0000      -0.198434        -5.3997 
  35   2.0000      -0.194087        -5.2814 
  36   0.0000      -0.076000        -2.0681 
  37   0.0000       0.003975         0.1082 
  38   0.0000       0.015730         0.4280 
  39   0.0000       0.046811         1.2738 
  40   0.0000       0.059226         1.6116 
  41   0.0000       0.090929         2.4743 
  42   0.0000       0.094479         2.5709 
  43   0.0000       0.113847         3.0979 
  44   0.0000       0.127386         3.4663 
  45   0.0000       0.129474         3.5232 
  46   0.0000       0.146615         3.9896 
  47   0.0000       0.178082         4.8459 
  48   0.0000       0.317622         8.6429 
  49   0.0000       0.344816         9.3829 
  50   0.0000       0.349900         9.5213 
  51   0.0000       0.436451        11.8764 
  52   0.0000       0.490036        13.3346 
  53   0.0000       0.498769        13.5722 
  54   0.0000       0.507162        13.8006 
  55   0.0000       0.524998        14.2859 
  56   0.0000       0.539007        14.6671 
  57   0.0000       0.556145        15.1335 
  58   0.0000       0.560225        15.2445 
  59   0.0000       0.579606        15.7719 
  60   0.0000       0.616393        16.7729 
  61   0.0000       0.623679        16.9712 
  62   0.0000       0.671205        18.2644 
  63   0.0000       0.683919        18.6104 
  64   0.0000       0.720763        19.6130 
  65   0.0000       0.740161        20.1408 
  66   0.0000       0.750823        20.4309 
  67   0.0000       0.763537        20.7769 
  68   0.0000       0.769070        20.9275 
  69   0.0000       0.780706        21.2441 
  70   0.0000       0.784244        21.3404 
  71   0.0000       0.789888        21.4940 
  72   0.0000       0.815218        22.1832 
  73   0.0000       0.816496        22.2180 
  74   0.0000       0.824226        22.4283 
  75   0.0000       0.828274        22.5385 
  76   0.0000       0.836851        22.7719 
  77   0.0000       0.856878        23.3168 
  78   0.0000       0.857140        23.3240 
  79   0.0000       0.928951        25.2781 
  80   0.0000       0.951134        25.8817 
  81   0.0000       0.954371        25.9698 
  82   0.0000       0.959115        26.0988 
  83   0.0000       1.060617        28.8609 
  84   0.0000       1.112826        30.2815 
  85   0.0000       1.153228        31.3809 
  86   0.0000       1.183458        32.2035 
  87   0.0000       1.233299        33.5598 
  88   0.0000       1.277008        34.7492 
  89   0.0000       1.278857        34.7995 
  90   0.0000       1.330741        36.2113 
  91   0.0000       1.333470        36.2856 
  92   0.0000       1.381726        37.5987 
  93   0.0000       1.417688        38.5773 
  94   0.0000       1.422153        38.6987 
  95   0.0000       1.440556        39.1995 
  96   0.0000       1.440670        39.2026 
  97   0.0000       1.491140        40.5760 
  98   0.0000       1.491355        40.5818 
  99   0.0000       1.515501        41.2389 
 100   0.0000       1.515989        41.2522 
 101   0.0000       1.817586        49.4590 
 102   0.0000       1.832371        49.8613 
 103   0.0000       1.875133        51.0250 
 104   0.0000       1.904129        51.8140 
 105   0.0000       1.964259        53.4502 
 106   0.0000       1.970405        53.6174 
 107   0.0000       1.975294        53.7505 
 108   0.0000       1.979823        53.8737 
 109   0.0000       2.067429        56.2576 
 110   0.0000       2.125622        57.8411 
 111   0.0000       2.324472        63.2521 
 112   0.0000       2.343080        63.7584 
 113   0.0000       2.390029        65.0360 
 114   0.0000       2.637746        71.7767 
 115   0.0000       2.640868        71.8617 
 116   0.0000       2.641601        71.8816 
 117   0.0000       2.662744        72.4570 
 118   0.0000       2.792567        75.9896 
 119   0.0000       2.799664        76.1827 
 120   0.0000       3.163937        86.0951 
 121   0.0000       3.168338        86.2149 
 122   0.0000       3.214060        87.4590 
 123   0.0000       3.254643        88.5633 
 124   0.0000      51.075654      1389.8392 
 125   0.0000     282.880030      7697.5570 

                    ********************************
                    * MULLIKEN POPULATION ANALYSIS *
                    ********************************

-----------------------
MULLIKEN ATOMIC CHARGES
-----------------------
   0 Pt:   -0.161084
   1 N :   -0.149238
   2 H :    0.207986
   3 H :    0.208055
   4 H :    0.179336
   5 N :   -0.149238
   6 H :    0.208139
   7 H :    0.179387
   8 H :    0.208084
   9 Cl:   -0.365707
  10 Cl:   -0.365719
Sum of atomic charges:   -0.0000000

--------------------------------
MULLIKEN REDUCED ORBITAL CHARGES
--------------------------------
  0 Pts       :     2.859393  s :     2.859393
      pz      :     2.141429  p :     6.435346
      px      :     2.140094
      py      :     2.153822
      dz2     :     1.895559  d :     8.842169
      dxz     :     1.974967
      dyz     :     1.643693
      dx2y2   :     1.450422
      dxy     :     1.877527
      f0      :     0.002263  f :     0.024177
      f+1     :     0.002515
      f-1     :     0.002414
      f+2     :     0.005657
      f-2     :     0.002102
      f+3     :     0.004590
      f-3     :     0.004637
  1 N s       :     3.376751  s :     3.376751
      pz      :     1.182888  p :     3.757413
      px      :     1.390181
      py      :     1.184344
      dz2     :     0.000904  d :     0.015075
      dxz     :     0.005386
      dyz     :     0.003208
      dx2y2   :     0.002650
      dxy     :     0.002927
  2 H s       :     0.749986  s :     0.749986
      pz      :     0.011935  p :     0.042029
      px      :     0.008734
      py      :     0.021359
  3 H s       :     0.749900  s :     0.749900
      pz      :     0.020996  p :     0.042045
      px      :     0.012189
      py      :     0.008860
  4 H s       :     0.777790  s :     0.777790
      pz      :     0.014658  p :     0.042874
      px      :     0.010092
      py      :     0.018124
  5 N s       :     3.376629  s :     3.376629
      pz      :     1.253551  p :     3.757532
      px      :     1.183859
      py      :     1.320121
      dz2     :     0.002808  d :     0.015077
      dxz     :     0.004192
      dyz     :     0.002225
      dx2y2   :     0.004634
      dxy     :     0.001218
  6 H s       :     0.749824  s :     0.749824
      pz      :     0.013734  p :     0.042037
      px      :     0.009260
      py      :     0.019043
  7 H s       :     0.777752  s :     0.777752
      pz      :     0.009717  p :     0.042861
      px      :     0.024212
      py      :     0.008933
  8 H s       :     0.749873  s :     0.749873
      pz      :     0.018139  p :     0.042043
      px      :     0.015034
      py      :     0.008869
  9 Cls       :     5.934580  s :     5.934580
      pz      :     3.801859  p :    11.414208
      px      :     3.901858
      py      :     3.710492
      dz2     :     0.003565  d :     0.016918
      dxz     :     0.001881
      dyz     :     0.004951
      dx2y2   :     0.003453
      dxy     :     0.003068
 10 Cls       :     5.934583  s :     5.934583
      pz      :     3.902963  p :    11.414188
      px      :     3.607847
      py      :     3.903378
      dz2     :     0.002032  d :     0.016948
      dxz     :     0.004729
      dyz     :     0.000695
      dx2y2   :     0.004609
      dxy     :     0.004883


                     *******************************
                     * LOEWDIN POPULATION ANALYSIS *
                     *******************************

----------------------
LOEWDIN ATOMIC CHARGES
----------------------
   0 Pt:   -0.791982
   1 N :    0.127661
   2 H :    0.132932
   3 H :    0.132961
   4 H :    0.113564
   5 N :    0.127777
   6 H :    0.133010
   7 H :    0.113558
   8 H :    0.132941
   9 Cl:   -0.111360
  10 Cl:   -0.111061

-------------------------------
LOEWDIN REDUCED ORBITAL CHARGES
-------------------------------
  0 Pts       :     2.770030  s :     2.770030
      pz      :     2.205593  p :     6.728517
      px      :     2.272053
      py      :     2.250871
      dz2     :     1.950449  d :     9.251312
      dxz     :     2.028502
      dyz     :     1.744311
      dx2y2   :     1.579591
      dxy     :     1.948457
      f0      :     0.003927  f :     0.042123
      f+1     :     0.004576
      f-1     :     0.003869
      f+2     :     0.010260
      f-2     :     0.003301
      f+3     :     0.008104
      f-3     :     0.008085
  1 N s       :     3.057911  s :     3.057911
      pz      :     1.196510  p :     3.776631
      px      :     1.379814
      py      :     1.200307
      dz2     :     0.003193  d :     0.037797
      dxz     :     0.012029
      dyz     :     0.009281
      dx2y2   :     0.007361
      dxy     :     0.005934
  2 H s       :     0.754651  s :     0.754651
      pz      :     0.028373  p :     0.112417
      px      :     0.026729
      py      :     0.057315
  3 H s       :     0.754611  s :     0.754611
      pz      :     0.053562  p :     0.112428
      px      :     0.040326
      py      :     0.018541
  4 H s       :     0.770946  s :     0.770946
      pz      :     0.037034  p :     0.115491
      px      :     0.033990
      py      :     0.044466
  5 N s       :     3.057803  s :     3.057803
      pz      :     1.258245  p :     3.776612
      px      :     1.199417
      py      :     1.318949
      dz2     :     0.005906  d :     0.037809
      dxz     :     0.010891
      dyz     :     0.006550
      dx2y2   :     0.012285
      dxy     :     0.002176
  6 H s       :     0.754556  s :     0.754556
      pz      :     0.033571  p :     0.112434
      px      :     0.019538
      py      :     0.059326
  7 H s       :     0.770963  s :     0.770963
      pz      :     0.025835  p :     0.115479
      px      :     0.065852
      py      :     0.023793
  8 H s       :     0.754604  s :     0.754604
      pz      :     0.052524  p :     0.112455
      px      :     0.036190
      py      :     0.023741
  9 Cls       :     5.761545  s :     5.761545
      pz      :     3.773670  p :    11.331089
      px      :     3.870439
      py      :     3.686979
      dz2     :     0.003866  d :     0.018726
      dxz     :     0.002125
      dyz     :     0.005458
      dx2y2   :     0.003931
      dxy     :     0.003345
 10 Cls       :     5.761404  s :     5.761404
      pz      :     3.867927  p :    11.330895
      px      :     3.596080
      py      :     3.866888
      dz2     :     0.002239  d :     0.018761
      dxz     :     0.005221
      dyz     :     0.000716
      dx2y2   :     0.005045
      dxy     :     0.005540


                      *****************************
                      * MAYER POPULATION ANALYSIS *
                      *****************************

  NA   - Mulliken gross atomic population
  ZA   - Total nuclear charge
  QA   - Mulliken gross atomic charge
  VA   - Mayer's total valence
  BVA  - Mayer's bonded valence
  FA   - Mayer's free valence

  ATOM       NA         ZA         QA         VA         BVA        FA
  0 Pt    18.1611    18.0000    -0.1611     3.0592     3.0592    -0.0000
  1 N      7.1492     7.0000    -0.1492     3.5294     3.5294    -0.0000
  2 H      0.7920     1.0000     0.2080     0.9448     0.9448     0.0000
  3 H      0.7919     1.0000     0.2081     0.9446     0.9446    -0.0000
  4 H      0.8207     1.0000     0.1793     0.9919     0.9919    -0.0000
  5 N      7.1492     7.0000    -0.1492     3.5296     3.5296    -0.0000
  6 H      0.7919     1.0000     0.2081     0.9446     0.9446    -0.0000
  7 H      0.8206     1.0000     0.1794     0.9919     0.9919     0.0000
  8 H      0.7919     1.0000     0.2081     0.9447     0.9447     0.0000
  9 Cl    17.3657    17.0000    -0.3657     1.0731     1.0731    -0.0000
 10 Cl    17.3657    17.0000    -0.3657     1.0732     1.0732    -0.0000

  Mayer bond orders larger than 0.100000
B(  0-Pt,  1-N ) :   0.6150 B(  0-Pt,  5-N ) :   0.6152 B(  0-Pt,  9-Cl) :   0.8938 
B(  0-Pt, 10-Cl) :   0.8939 B(  1-N ,  2-H ) :   0.9342 B(  1-N ,  3-H ) :   0.9343 
B(  1-N ,  4-H ) :   0.9209 B(  1-N , 10-Cl) :   0.1133 B(  5-N ,  6-H ) :   0.9342 
B(  5-N ,  7-H ) :   0.9208 B(  5-N ,  8-H ) :   0.9342 B(  5-N ,  9-Cl) :   0.1133 


-------
TIMINGS
-------

Total SCF time: 0 days 0 hours 0 min 1 sec 

Total time                  ....       1.385 sec
Sum of individual times     ....       1.290 sec  ( 93.1%)

Fock matrix formation       ....       1.010 sec  ( 72.9%)
  Split-RI-J                ....       0.133 sec  ( 13.2% of F)
  XC integration            ....       0.317 sec  ( 31.3% of F)
    Basis function eval.    ....       0.077 sec  ( 24.4% of XC)
    Density eval.           ....       0.061 sec  ( 19.1% of XC)
    XC-Functional eval.     ....       0.018 sec  (  5.8% of XC)
    XC-Potential eval.      ....       0.038 sec  ( 12.1% of XC)
Diagonalization             ....       0.018 sec  (  1.3%)
Density matrix formation    ....       0.001 sec  (  0.1%)
Population analysis         ....       0.006 sec  (  0.4%)
Initial guess               ....       0.004 sec  (  0.3%)
Orbital Transformation      ....       0.000 sec  (  0.0%)
Orbital Orthonormalization  ....       0.003 sec  (  0.2%)
DIIS solution               ....       0.015 sec  (  1.1%)
Grid generation             ....       0.236 sec  ( 17.1%)

Maximum memory used throughout the entire SCF-calculation: 19.0 MB


-------------------------------------------------------------------------------
                          DFT DISPERSION CORRECTION                            
                                                                               
                                 DFTD4 V2.5                                    
-------------------------------------------------------------------------------
The BP86 functional is recognized
Active option DFTDOPT                   ...         5   

Starting D4
-------------------------   ----------------
Dispersion correction           -0.015786237
-------------------------   ----------------


-------------------------   --------------------
FINAL SINGLE POINT ENERGY     -1152.930725460712
-------------------------   --------------------

                                *** OPTIMIZATION RUN DONE ***

                            ***************************************
                            *     ORCA property calculations      *
                            ***************************************

                                    ---------------------
                                    Active property flags
                                    ---------------------
   (+) Dipole Moment


------------------------------------------------------------------------------
                       ORCA ELECTRIC PROPERTIES CALCULATION
------------------------------------------------------------------------------

Dipole Moment Calculation                       ... on
Quadrupole Moment Calculation                   ... off
Polarizability Calculation                      ... off
GBWName                                         ... orca_opt.gbw
Electron density                                ... orca_opt.scfp
The origin for moment calculation is the CENTER OF MASS  = (-5.672978, -0.039153  0.455562)

-------------
DIPOLE MOMENT
-------------
                                X             Y             Z
Electronic contribution:     13.40428      17.36748      -6.75751
Nuclear contribution   :     -9.88094     -12.81497       4.97711
                        -----------------------------------------
Total Dipole Moment    :      3.52334       4.55251      -1.78039
                        -----------------------------------------
Magnitude (a.u.)       :      6.02570
Magnitude (Debye)      :     15.31611



--------------------
Rotational spectrum 
--------------------
 
Rotational constants in cm-1:     0.068433     0.056726     0.031337 
Rotational constants in MHz :  2051.577815  1700.615918   939.444900 

 Dipole components along the rotational axes: 
x,y,z [a.u.] :     0.002931     6.025699    -0.001854 
x,y,z [Debye]:     0.007449    15.316110    -0.004712 

 

Timings for individual modules:

Sum of individual times         ...       37.681 sec (=   0.628 min)
GTO integral calculation        ...        3.284 sec (=   0.055 min)   8.7 %
SCF iterations                  ...       23.700 sec (=   0.395 min)  62.9 %
SCF Gradient evaluation         ...       10.590 sec (=   0.176 min)  28.1 %
Geometry relaxation             ...        0.107 sec (=   0.002 min)   0.3 %
                             ****ORCA TERMINATED NORMALLY****
TOTAL RUN TIME: 0 days 0 hours 0 minutes 39 seconds 98 msec
