[Molden Format]
[Title]
 Molden file created by orca_2mkl for BaseName=orca_opt

[Atoms] AU
Pt   1  78         -5.4425939247         0.2591089045         0.3393609108 
N    2   7         -1.7063405796         1.2142239524         0.9963776838 
H    3   1         -1.4986427618         2.9451693181         1.8722102448 
H    4   1         -0.6344488692         1.2655054187        -0.6330272664 
H    5   1         -0.9052648646        -0.1268119639         2.1707260685 
N    6   7         -6.0075222350         3.4010117474        -1.9209785930 
H    7   1         -5.7258285023         5.0829882072        -0.9733588252 
H    8   1         -7.8535411371         3.4011288212        -2.5623181468 
H    9   1         -4.8505732457         3.4306180390        -3.4914842796 
Cl  10  17         -4.7143815374        -3.2814867682         2.9224214936 
Cl  11  17         -9.6916966132        -0.7539958231        -0.4660362383 
[GTO]
  1 0
s   2 1.0 
       16.5595630000        -8.2111709246
       13.8924400000        12.2265939393
s   1 1.0 
        5.8531044732         2.6819445795
s   1 1.0 
        1.2498640609         0.8424753011
s   1 1.0 
        0.5560643946         0.4589378830
s   1 1.0 
        0.1379309381         0.1613081683
s   1 1.0 
        0.0489890341         0.0742137283
p   4 1.0 
        8.1000000000        15.3722926767
        7.2000000000       -17.3571319056
        1.5588402917         1.5346865251
        0.7323040218         0.5171486561
p   1 1.0 
        0.3027048467         0.3200474020
p   1 1.0 
        0.0500000000         0.0337017609
d   4 1.0 
        4.6299536825        -4.0045426569
        2.1980241252         2.6209846974
        0.9362999126         1.2947053721
        0.3716002816         0.2270955538
d   1 1.0 
        0.1315592862         0.0819280698
f   1 1.0 
        0.6681300000         2.3011094061

  2 0
s   5 1.0 
     1712.8415853000        -1.0337585405
      257.6481267700        -1.8620740805
       58.4582458530        -2.7290401880
       16.1983679050        -2.6956734544
        5.0052600809        -1.0640914367
s   1 1.0 
        0.5873185657         0.4781513534
s   1 1.0 
        0.1876459225         0.2031956662
p   3 1.0 
       13.5714702330        -2.1850243557
        2.9257372874        -1.7466999024
        0.7992775075        -0.8114650516
p   1 1.0 
        0.2195434803         0.2142105067
d   1 1.0 
        1.0000000000         2.8508218814

  3 0
s   3 1.0 
       13.0107010000         0.1634903809
        1.9622572000         0.2773515510
        0.4445379600         0.3157501452
s   1 1.0 
        0.1219496200         0.1470772262
p   1 1.0 
        0.8000000000         1.0784563492

  4 0
s   3 1.0 
       13.0107010000         0.1634903809
        1.9622572000         0.2773515510
        0.4445379600         0.3157501452
s   1 1.0 
        0.1219496200         0.1470772262
p   1 1.0 
        0.8000000000         1.0784563492

  5 0
s   3 1.0 
       13.0107010000         0.1634903809
        1.9622572000         0.2773515510
        0.4445379600         0.3157501452
s   1 1.0 
        0.1219496200         0.1470772262
p   1 1.0 
        0.8000000000         1.0784563492

  6 0
s   5 1.0 
     1712.8415853000        -1.0337585405
      257.6481267700        -1.8620740805
       58.4582458530        -2.7290401880
       16.1983679050        -2.6956734544
        5.0052600809        -1.0640914367
s   1 1.0 
        0.5873185657         0.4781513534
s   1 1.0 
        0.1876459225         0.2031956662
p   3 1.0 
       13.5714702330        -2.1850243557
        2.9257372874        -1.7466999024
        0.7992775075        -0.8114650516
p   1 1.0 
        0.2195434803         0.2142105067
d   1 1.0 
        1.0000000000         2.8508218814

  7 0
s   3 1.0 
       13.0107010000         0.1634903809
        1.9622572000         0.2773515510
        0.4445379600         0.3157501452
s   1 1.0 
        0.1219496200         0.1470772262
p   1 1.0 
        0.8000000000         1.0784563492

  8 0
s   3 1.0 
       13.0107010000         0.1634903809
        1.9622572000         0.2773515510
        0.4445379600         0.3157501452
s   1 1.0 
        0.1219496200         0.1470772262
p   1 1.0 
        0.8000000000         1.0784563492

  9 0
s   3 1.0 
       13.0107010000         0.1634903809
        1.9622572000         0.2773515510
        0.4445379600         0.3157501452
s   1 1.0 
        0.1219496200         0.1470772262
p   1 1.0 
        0.8000000000         1.0784563492

 10 0
s   5 1.0 
    10449.8275660000         3.9973241313
     1571.7365221000         7.2277480961
      357.1206552300        10.7494942607
      100.2518593500        10.7118498358
       30.8127275540         4.0765111022
s   3 1.0 
       51.9237894340        -1.2786987774
        5.7045760975         1.4832318965
        2.3508376809         0.6815120566
s   1 1.0 
        0.4460512467         0.3889991572
s   1 1.0 
        0.1684885619         0.1874294841
p   5 1.0 
      307.6679056900       -16.3095226390
       72.1020155150       -19.2520828188
       22.5326802620       -16.9965641132
        7.8991765444        -9.1249716393
        2.8767268321        -2.0801728153
p   1 1.0 
        0.7745936396         1.0358157160
p   1 1.0 
        0.2103769970         0.2030897020
d   1 1.0 
        0.6500000000         1.3414313681

 11 0
s   5 1.0 
    10449.8275660000         3.9973241313
     1571.7365221000         7.2277480961
      357.1206552300        10.7494942607
      100.2518593500        10.7118498358
       30.8127275540         4.0765111022
s   3 1.0 
       51.9237894340        -1.2786987774
        5.7045760975         1.4832318965
        2.3508376809         0.6815120566
s   1 1.0 
        0.4460512467         0.3889991572
s   1 1.0 
        0.1684885619         0.1874294841
p   5 1.0 
      307.6679056900       -16.3095226390
       72.1020155150       -19.2520828188
       22.5326802620       -16.9965641132
        7.8991765444        -9.1249716393
        2.8767268321        -2.0801728153
p   1 1.0 
        0.7745936396         1.0358157160
p   1 1.0 
        0.2103769970         0.2030897020
d   1 1.0 
        0.6500000000         1.3414313681

[5D]
[7F]
[9G]
[MO]
 Sym=     1a
 Ene= -1.00647934920733E+02
 Spin= Alpha
 Occup= 2.000000
  1       0.000147487525
  2      -0.000308106460
  3       0.000970009181
  4      -0.002001211496
  5       0.001938501918
  6       0.003604181569
  7       0.000066505658
  8       0.000093023870
  9      -0.000038120194
 10      -0.000196771808
 11      -0.000274889180
 12       0.000112565392
 13      -0.001157446849
 14      -0.001688590578
 15       0.000709937273
 16       0.000019886965
 17      -0.000011282878
 18       0.000029594305
 19      -0.000004711441
 20      -0.000015782824
 21      -0.000829911819
 22       0.000831895312
 23      -0.001496125228
 24       0.000276277570
 25       0.000306293482
 26      -0.000014734419
 27       0.000035103575
 28      -0.000011305665
 29      -0.000061364363
 30      -0.000021727649
 31       0.000039617822
 32       0.000010130694
 33       0.000004177857
 34       0.000226121173
 35      -0.001555659876
 36       0.000001854040
 37      -0.000012516575
 38       0.000008656172
 39       0.000414998748
 40       0.000158617723
 41       0.000032973045
 42       0.000013095481
 43       0.000006041142
 44       0.000014172115
 45       0.000004704191
 46      -0.000022741428
 47       0.000100751070
 48       0.000172715183
 49      -0.000033015733
 50      -0.000022188613
 51      -0.000028370365
 52       0.000099080953
 53       0.000165368586
 54      -0.000046430305
 55       0.000006218042
 56       0.000010732788
 57       0.000044968495
 58       0.000112542806
 59      -0.000067921021
 60       0.000003773352
 61      -0.000026058110
 62       0.000005767868
 63       0.000251469390
 64      -0.001746310294
 65      -0.000013587240
 66      -0.000000527051
 67      -0.000004259633
 68      -0.000017719332
 69       0.000412692688
 70      -0.000275096930
 71       0.000011121833
 72       0.000005698786
 73       0.000016021370
 74       0.000006579392
 75      -0.000019586992
 76       0.000101252753
 77       0.000212383070
 78       0.000013554591
 79      -0.000049923563
 80       0.000003343753
 81       0.000051614971
 82       0.000158244970
 83       0.000036271066
 84      -0.000044235695
 85       0.000041481979
 86       0.000101907766
 87       0.000214883558
 88      -0.000002208443
 89      -0.000021179949
 90       0.000047687382
 91      -0.738980615164
 92      -0.016695867198
 93       0.008751165662
 94      -0.007712912507
 95      -0.000025666159
 96       0.000076736218
 97      -0.000059420979
 98      -0.000135718256
 99       0.000351820282
100      -0.000278666636
101       0.000466696692
102      -0.001302871205
103       0.001019540805
104       0.000014398277
105      -0.000057680305
106       0.000194338758
107       0.000097149596
108       0.000047766992
109      -0.664834572089
110      -0.015025047736
111       0.007907042234
112      -0.006978075128
113       0.000086972139
114       0.000011591099
115       0.000022520167
116       0.000408042384
117       0.000039721626
118       0.000115316091
119      -0.001486084363
120      -0.000173563517
121      -0.000400981903
122       0.000099962383
123      -0.000080413503
124       0.000019223107
125      -0.000148338244
126      -0.000068578029
 Sym=     1a
 Ene= -1.00647906599973E+02
 Spin= Alpha
 Occup= 2.000000
  1      -0.000007774620
  2       0.000016239899
  3      -0.000051121499
  4       0.000105596830
  5      -0.000102830872
  6      -0.000190608794
  7      -0.000076879965
  8       0.000031957048
  9      -0.000048487530
 10       0.000230111536
 11      -0.000095615049
 12       0.000144765377
 13       0.002085638559
 14      -0.000938961190
 15       0.001338559102
 16       0.000000036113
 17       0.000000548281
 18      -0.000003561636
 19      -0.000003180906
 20      -0.000000503365
 21       0.000859715648
 22      -0.000284863309
 23      -0.001478606405
 24      -0.002284946243
 25      -0.001092879550
 26      -0.000046306988
 27      -0.000019315536
 28      -0.000026181678
 29      -0.000004092829
 30      -0.000023991437
 31      -0.000022004951
 32      -0.000030652146
 33      -0.000015613663
 34      -0.000255387169
 35       0.001895195218
 36      -0.000033815112
 37      -0.000022404273
 38       0.000003408582
 39      -0.000510648166
 40      -0.000081618829
 41      -0.000121993628
 42      -0.000003715536
 43       0.000012508272
 44       0.000018366882
 45       0.000029420619
 46      -0.000004768196
 47      -0.000017066092
 48      -0.000422073257
 49       0.000017808360
 50       0.000045349115
 51       0.000003232242
 52      -0.000016483848
 53      -0.000428062243
 54       0.000030367213
 55       0.000022448582
 56      -0.000032768146
 57      -0.000072233908
 58      -0.000449845732
 59      -0.000024210233
 60      -0.000033305166
 61       0.000013056829
 62       0.000015125517
 63       0.000230452932
 64      -0.001721257073
 65       0.000011879784
 66       0.000034884002
 67      -0.000018623975
 68      -0.000130782392
 69       0.000367852581
 70      -0.000285570814
 71      -0.000014025232
 72      -0.000008419354
 73       0.000011664647
 74       0.000016278706
 75       0.000028711544
 76       0.000005637931
 77       0.000404899124
 78      -0.000022939831
 79      -0.000038961954
 80      -0.000006585146
 81       0.000067099885
 82       0.000436185604
 83       0.000022470348
 84       0.000036641219
 85      -0.000016581230
 86       0.000006547675
 87       0.000403853422
 88      -0.000033805133
 89      -0.000018535931
 90       0.000024530817
 91      -0.664839379397
 92      -0.014979778300
 93       0.007556027710
 94      -0.006588693388
 95      -0.000004419211
 96       0.000074434255
 97      -0.000050589228
 98      -0.000010758242
 99       0.000332463802
100      -0.000222855409
101       0.000083975571
102      -0.001300160772
103       0.000885572566
104      -0.000025020869
105      -0.000015269640
106       0.000147742959
107       0.000132599902
108       0.000061853969
109       0.738984928416
110       0.016655237485
111      -0.008436220964
112       0.007366224321
113      -0.000094305137
114      -0.000030650914
115      -0.000012549245
116      -0.000419335238
117      -0.000142200163
118      -0.000051938100
119       0.001646792104
120       0.000527224058
121       0.000224164425
122      -0.000091938250
123       0.000055446309
124       0.000052862503
125       0.000178869562
126       0.000085631304
 Sym=     1a
 Ene= -1.40736576221630E+01
 Spin= Alpha
 Occup= 2.000000
  1      -0.000091349005
  2       0.000215742811
  3      -0.000774891548
  4       0.001772636767
  5      -0.003045090861
  6      -0.002670817186
  7      -0.000234688062
  8       0.000342031990
  9      -0.000304208161
 10       0.001298178140
 11      -0.001959061818
 12       0.001731455249
 13       0.000339393819
 14      -0.001509217404
 15       0.001110051504
 16      -0.000009433062
 17       0.000000424883
 18       0.000074254779
 19       0.000071382598
 20       0.000018534859
 21      -0.001313009977
 22      -0.000249396907
 23       0.004988527704
 24       0.005167332793
 25       0.002521404445
 26       0.000144497654
 27       0.000006729247
 28       0.000086401334
 29       0.000120845826
 30       0.000075938339
 31       0.000007800034
 32       0.000086662676
 33      -0.276361513530
 34       0.013531413967
 35      -0.009128457192
 36      -0.000338868922
 37      -0.000174270930
 38      -0.000001361541
 39       0.002180931597
 40      -0.000549200325
 41       0.001109034055
 42       0.000165914159
 43      -0.000008577087
 44      -0.000159701816
 45      -0.000299904181
 46      -0.000237661633
 47      -0.000495848687
 48       0.001234889937
 49      -0.000127773384
 50       0.000936072781
 51       0.000183661693
 52      -0.000506512171
 53       0.001233054393
 54       0.000249510611
 55       0.000207756821
 56      -0.000905964740
 57      -0.001118324538
 58      -0.000013021785
 59       0.000306591646
 60      -0.000914630530
 61       0.000719974818
 62       0.948555501398
 63      -0.045230435395
 64       0.024964873708
 65      -0.000251239439
 66       0.001308910874
 67      -0.000946761489
 68       0.001067884133
 69      -0.004630178343
 70       0.003411802656
 71       0.000025971159
 72       0.000264861089
 73      -0.001234342523
 74      -0.000821526483
 75      -0.000383042048
 76       0.002830161212
 77      -0.001676803158
 78      -0.000695200029
 79      -0.002716326120
 80      -0.002161176663
 81       0.002804177504
 82      -0.001434678839
 83       0.003415668214
 84       0.000473760435
 85       0.000875636809
 86       0.002830680000
 87      -0.001671877678
 88      -0.002354799185
 89       0.000415228456
 90       0.002612846632
 91      -0.000009281112
 92       0.000091971843
 93      -0.001131860656
 94       0.004575651931
 95      -0.000003106821
 96      -0.000055493769
 97       0.000035590683
 98      -0.000000201758
 99      -0.000378852389
100       0.000250126663
101      -0.000381936518
102       0.002472379796
103      -0.001762323027
104       0.000020640287
105       0.000046974672
106      -0.000343360522
107      -0.000261248336
108      -0.000099709900
109       0.000007939216
110      -0.000073099664
111       0.000617958248
112      -0.002402981164
113       0.000058189422
114       0.000029870539
115       0.000000605670
116       0.000342837636
117       0.000154749679
118       0.000017511754
119      -0.001752864858
120      -0.000319953550
121      -0.000398096357
122       0.000082336447
123      -0.000040120521
124      -0.000063698095
125      -0.000165521211
126      -0.000087019982
 Sym=     1a
 Ene= -1.40735791709193E+01
 Spin= Alpha
 Occup= 2.000000
  1      -0.000166799250
  2       0.000393961372
  3      -0.001415634119
  4       0.003237926900
  5      -0.005553027105
  6      -0.004883246322
  7       0.000421527397
  8       0.000189701559
  9       0.000019082921
 10      -0.002420484236
 11      -0.001130599707
 12      -0.000086489399
 13      -0.001951348869
 14      -0.001452663967
 15       0.000284453393
 16       0.000045023123
 17      -0.000016285752
 18       0.000016844068
 19      -0.000045078832
 20      -0.000047587002
 21       0.002356254289
 22      -0.001850859241
 23       0.000035355034
 24      -0.003809225206
 25      -0.001670567551
 26      -0.000029796718
 27      -0.000124306700
 28      -0.000022447787
 29       0.000132164887
 30       0.000010217809
 31      -0.000118849003
 32      -0.000091404997
 33       0.948579430255
 34      -0.045005459042
 35       0.023786160874
 36       0.001639641688
 37       0.000339659985
 38       0.000336022526
 39      -0.005267982835
 40      -0.001814892535
 41      -0.000612760760
 42      -0.000711376301
 43       0.000554387501
 44       0.000048512335
 45       0.001204639176
 46       0.000510192012
 47       0.003042297327
 48      -0.001194464176
 49       0.000156907465
 50      -0.003192512070
 51      -0.001679207599
 52       0.003035602954
 53      -0.001195715950
 54      -0.001546064737
 55       0.000120631071
 56       0.003258838892
 57       0.002607964674
 58      -0.001706576373
 59      -0.000936159843
 60       0.002601131961
 61      -0.002063567391
 62       0.276443199204
 63      -0.012761878300
 64       0.005074010497
 65      -0.000216929992
 66       0.000450084696
 67      -0.000370188132
 68      -0.001169835205
 69      -0.001348344330
 70       0.000482948845
 71      -0.000058864678
 72       0.000237964203
 73      -0.000459785097
 74      -0.000124574053
 75      -0.000170608891
 76       0.001208603716
 77       0.000401116790
 78       0.000059143345
 79      -0.000956339943
 80      -0.000705169945
 81       0.000457419242
 82      -0.000926022870
 83       0.000804549370
 84       0.000094380035
 85       0.000216843692
 86       0.001213644804
 87       0.000398538221
 88      -0.000547941031
 89       0.000187466739
 90       0.001038838611
 91       0.000003474627
 92      -0.000027837228
 93       0.000009947157
 94       0.000069646749
 95       0.000007087671
 96       0.000030155323
 97      -0.000017518357
 98       0.000025360583
 99       0.000133676376
100      -0.000079799250
101       0.000244080021
102      -0.000102434989
103       0.000152274017
104      -0.000021504999
105       0.000021638534
106      -0.000042312014
107       0.000004221519
108       0.000008015483
109      -0.000005951857
110       0.000062537388
111      -0.000949485387
112       0.003902741261
113      -0.000034477589
114      -0.000012496659
115      -0.000003850180
116      -0.000280915743
117      -0.000098364274
118      -0.000033418132
119       0.002341318132
120       0.000747857442
121       0.000322204740
122      -0.000177102854
123       0.000106050078
124       0.000037171137
125       0.000290280431
126       0.000161443160
 Sym=     1a
 Ene= -9.12989156790601E+00
 Spin= Alpha
 Occup= 2.000000
  1       0.000161434932
  2      -0.000396823989
  3       0.001649117267
  4      -0.003828598248
  5       0.003782302739
  6       0.009993920829
  7       0.000099076040
  8       0.000119406541
  9      -0.000043980647
 10      -0.000547455069
 11      -0.000630141961
 12       0.000224257873
 13      -0.004514511500
 14      -0.004862423895
 15       0.001636407280
 16       0.000077665799
 17      -0.000045860672
 18       0.000118259565
 19      -0.000017328234
 20      -0.000059888473
 21      -0.002314394165
 22       0.002083769888
 23      -0.003173530531
 24       0.001391628144
 25       0.001153515780
 26      -0.000012711507
 27       0.000024325682
 28       0.000001905568
 29      -0.000039435050
 30       0.000004857855
 31       0.000007616333
 32       0.000011073463
 33       0.000008812636
 34       0.000567425484
 35      -0.004402916673
 36      -0.000029908939
 37      -0.000038956082
 38       0.000014529534
 39       0.000902419864
 40       0.000327770002
 41       0.000079496031
 42       0.000027655604
 43       0.000010890842
 44       0.000023788604
 45       0.000003538769
 46      -0.000046651036
 47       0.000240039177
 48       0.000842345302
 49      -0.000067217231
 50      -0.000074123645
 51      -0.000087086643
 52       0.000234929249
 53       0.000822044935
 54      -0.000115528385
 55       0.000025958176
 56       0.000054351822
 57       0.000124265243
 58       0.000640458615
 59      -0.000176973541
 60       0.000012665664
 61      -0.000069593118
 62       0.000002175841
 63       0.000466749407
 64      -0.003666432966
 65      -0.000035828047
 66      -0.000051040696
 67       0.000021389610
 68       0.000030391882
 69       0.000675960755
 70      -0.000427745781
 71       0.000027380859
 72       0.000015754726
 73       0.000027247426
 74       0.000007646011
 75      -0.000050852735
 76       0.000233406002
 77       0.000601448359
 78       0.000050588837
 79      -0.000102988833
 80      -0.000014805787
 81       0.000101548600
 82       0.000390429853
 83       0.000077668667
 84      -0.000143529675
 85       0.000120930948
 86       0.000234953003
 87       0.000609966924
 88       0.000004587029
 89      -0.000018879562
 90       0.000115056562
 91      -0.200282035019
 92       0.655581817790
 93       0.037881054331
 94      -0.021739591563
 95       0.000269772378
 96      -0.001883000459
 97       0.001335083543
 98      -0.000374103544
 99       0.000917685103
100      -0.000733736937
101       0.001250388537
102      -0.002839761587
103       0.002302541636
104       0.000038074916
105      -0.000099180104
106       0.000247487815
107       0.000083351500
108       0.000056178331
109      -0.238298384994
110       0.780032774148
111       0.044911706901
112      -0.025635290918
113      -0.002634893908
114      -0.000736016686
115      -0.000427005203
116       0.001395549210
117       0.000199523473
118       0.000352393301
119      -0.004381166662
120      -0.000563959628
121      -0.001147501832
122       0.000157889333
123      -0.000138699979
124       0.000038762053
125      -0.000237217105
126      -0.000097012048
 Sym=     1a
 Ene= -9.12987529229825E+00
 Spin= Alpha
 Occup= 2.000000
  1      -0.000014001009
  2       0.000034422325
  3      -0.000143251149
  4       0.000332544255
  5      -0.000327325383
  6      -0.000865843882
  7       0.000050734795
  8      -0.000039725445
  9       0.000045685331
 10      -0.000453881139
 11       0.000305934980
 12      -0.000363826949
 13      -0.005900720750
 14       0.003617685481
 15      -0.004417851827
 16      -0.000012599122
 17       0.000004786434
 18       0.000000913496
 19       0.000019292002
 20       0.000012712993
 21      -0.001646220569
 22       0.000365432532
 23       0.003801332336
 24       0.005016898251
 25       0.002337247155
 26       0.000042272134
 27      -0.000008194032
 28       0.000012704396
 29      -0.000022751358
 30       0.000044812065
 31       0.000009592223
 32      -0.000024157878
 33       0.000037302559
 34       0.000531011065
 35      -0.003894297858
 36       0.000066138026
 37       0.000056857345
 38      -0.000014923344
 39       0.000869905388
 40       0.000046404786
 41       0.000274849554
 42       0.000006833384
 43      -0.000026769195
 44      -0.000044816976
 45      -0.000067076230
 46       0.000011384271
 47       0.000004336384
 48       0.001247664035
 49      -0.000044406409
 50      -0.000122612005
 51       0.000005073614
 52       0.000005286458
 53       0.001270074374
 54      -0.000073615877
 55      -0.000072211355
 56       0.000086688240
 57       0.000110981643
 58       0.001379913092
 59       0.000112118583
 60       0.000107065206
 61      -0.000030783796
 62      -0.000038356137
 63      -0.000621487907
 64       0.004595310018
 65      -0.000028941933
 66      -0.000065733879
 67       0.000032706173
 68       0.000330198508
 69      -0.000785834289
 70       0.000626815941
 71       0.000026628767
 72       0.000013597418
 73      -0.000033107261
 74      -0.000041770249
 75      -0.000053382473
 76      -0.000044555249
 77      -0.001383462863
 78       0.000062094222
 79       0.000131595142
 80       0.000015759102
 81      -0.000130490326
 82      -0.001471026380
 83      -0.000084158749
 84      -0.000104297563
 85       0.000040094919
 86      -0.000046728028
 87      -0.001380968339
 88       0.000098388932
 89       0.000063419980
 90      -0.000088014546
 91       0.238308417946
 92      -0.780125110745
 93      -0.044139339359
 94       0.024496375371
 95      -0.000369751458
 96       0.002223754923
 97      -0.001594294481
 98       0.000107838189
 99      -0.001166093294
100       0.000805810410
101      -0.000304350129
102       0.003731733379
103      -0.002563688250
104       0.000045653612
105       0.000016740218
106      -0.000232993476
107      -0.000221271179
108      -0.000100146353
109      -0.200293958557
110       0.655691540987
111       0.036963544327
112      -0.020392941937
113      -0.002216861143
114      -0.000582572712
115      -0.000383331735
116       0.001118770882
117       0.000401807165
118       0.000123709926
119      -0.003577526068
120      -0.001328793789
121      -0.000366261153
122       0.000101926532
123      -0.000044901163
124      -0.000106536126
125      -0.000223991657
126      -0.000113766560
 Sym=     1a
 Ene= -6.95788772364477E+00
 Spin= Alpha
 Occup= 2.000000
  1       0.000039484197
  2      -0.000099545157
  3       0.000493672780
  4      -0.001436028303
  5       0.002516701995
  6       0.002131516603
  7       0.000169150039
  8       0.000074584899
  9       0.000010747104
 10      -0.001103691655
 11      -0.000278119061
 12      -0.000202658794
 13      -0.000776906560
 14      -0.000087732188
 15      -0.000215999344
 16      -0.000095393473
 17       0.000088948055
 18       0.000043091747
 19       0.000201729620
 20       0.000059377164
 21      -0.002056416823
 22       0.000815604262
 23       0.001769675473
 24       0.004139220321
 25       0.002342925281
 26      -0.000031414306
 27      -0.000023931885
 28      -0.000028675351
 29       0.000002218698
 30      -0.000033294484
 31      -0.000006924053
 32      -0.000033223875
 33       0.000051024697
 34       0.000713029977
 35      -0.003984337981
 36       0.000173935804
 37       0.000059699508
 38       0.000019731100
 39       0.002007184229
 40       0.000602755819
 41       0.000284606810
 42       0.000024042180
 43      -0.000036144857
 44       0.000003130705
 45      -0.000050693857
 46      -0.000001206044
 47       0.000060494365
 48      -0.000189050691
 49      -0.000065811274
 50       0.000015324266
 51       0.000017515736
 52       0.000058278098
 53      -0.000194927135
 54      -0.000042525187
 55      -0.000027478244
 56      -0.000047014323
 57       0.000218525894
 58      -0.000141570762
 59      -0.000075517876
 60      -0.000018872814
 61      -0.000012674586
 62      -0.000052943611
 63      -0.000507910045
 64       0.002247279858
 65      -0.000099994569
 66      -0.000171966492
 67       0.000078253843
 68      -0.000648724877
 69      -0.001119711887
 70       0.000511223583
 71      -0.000010546614
 72       0.000070073650
 73      -0.000019873826
 74       0.000051319154
 75      -0.000049845727
 76       0.000162769504
 77      -0.000041975083
 78       0.000103514820
 79      -0.000019359604
 80      -0.000080926167
 81      -0.000471246708
 82      -0.000060178583
 83      -0.000088590249
 84      -0.000049528543
 85       0.000001677992
 86       0.000163552464
 87      -0.000041959316
 88       0.000044918784
 89       0.000090359004
 90       0.000086368296
 91      -0.000259758430
 92       0.000935228613
 93      -0.000646853754
 94       0.002030823459
 95      -0.035531445600
 96       0.157107300603
 97      -0.115985070746
 98       0.001978382309
 99      -0.008580997288
100       0.006347583331
101      -0.000524721828
102       0.002306648405
103      -0.001702248866
104       0.000032182687
105      -0.000002383249
106      -0.000065603403
107      -0.000087134334
108      -0.000049150569
109       0.001250552359
110      -0.004486512378
111       0.002995975598
112      -0.006975980446
113      -0.919449488005
114      -0.207009639446
115      -0.181585804223
116       0.049905864225
117       0.011229830257
118       0.009862301815
119      -0.010963429015
120      -0.002417059693
121      -0.002203295174
122       0.000133964807
123      -0.000120292677
124      -0.000044193448
125      -0.000265747195
126      -0.000087177030
 Sym=     1a
 Ene= -6.95786294600871E+00
 Spin= Alpha
 Occup= 2.000000
  1       0.000060256065
  2      -0.000151920061
  3       0.000753356555
  4      -0.002189160130
  5       0.003830107595
  6       0.003247997858
  7       0.000082280782
  8       0.000201971300
  9      -0.000105152562
 10      -0.000287002551
 11      -0.001126323975
 12       0.000643911558
 13      -0.000068039035
 14      -0.000695391170
 15       0.000433149977
 16      -0.000015799006
 17       0.000097080862
 18      -0.000181209076
 19      -0.000052867668
 20      -0.000080024209
 21      -0.000023137957
 22       0.000329927296
 23      -0.003242321470
 24      -0.002358531465
 25      -0.000537807429
 26       0.000042287063
 27      -0.000001841329
 28       0.000007118141
 29       0.000016720245
 30      -0.000000581120
 31       0.000028979545
 32       0.000005407214
 33      -0.000035524526
 34      -0.000244137305
 35       0.000723945732
 36      -0.000085244504
 37      -0.000134571274
 38       0.000059456037
 39      -0.000178242131
 40      -0.000782137774
 41       0.000448909281
 42       0.000011075406
 43       0.000056568753
 44      -0.000041516549
 45       0.000004996436