
                                 *****************
                                 * O   R   C   A *
                                 *****************

                                            #,                                       
                                            ###                                      
                                            ####                                     
                                            #####                                    
                                            ######                                   
                                           ########,                                 
                                     ,,################,,,,,                         
                               ,,#################################,,                 
                          ,,##########################################,,             
                       ,#########################################, ''#####,          
                    ,#############################################,,   '####,        
                  ,##################################################,,,,####,       
                ,###########''''           ''''###############################       
              ,#####''   ,,,,##########,,,,          '''####'''          '####       
            ,##' ,,,,###########################,,,                        '##       
           ' ,,###''''                  '''############,,,                           
         ,,##''                                '''############,,,,        ,,,,,,###''
      ,#''                                            '''#######################'''  
     '                                                          ''''####''''         
             ,#######,   #######,   ,#######,      ##                                
            ,#'     '#,  ##    ##  ,#'     '#,    #''#        ######   ,####,        
            ##       ##  ##   ,#'  ##            #'  '#       #        #'  '#        
            ##       ##  #######   ##           ,######,      #####,   #    #        
            '#,     ,#'  ##    ##  '#,     ,#' ,#      #,         ##   #,  ,#        
             '#######'   ##     ##  '#######'  #'      '#     #####' # '####'        



                  #######################################################
                  #                        -***-                        #
                  #          Department of theory and spectroscopy      #
                  #    Directorship and core code : Frank Neese         #
                  #        Max Planck Institute fuer Kohlenforschung    #
                  #                Kaiser Wilhelm Platz 1               #
                  #                 D-45470 Muelheim/Ruhr               #
                  #                      Germany                        #
                  #                                                     #
                  #                  All rights reserved                #
                  #                        -***-                        #
                  #######################################################


                         Program Version 5.0.3 -  RELEASE  -


 With contributions from (in alphabetic order):
   Daniel Aravena         : Magnetic Suceptibility
   Michael Atanasov       : Ab Initio Ligand Field Theory (pilot matlab implementation)
   Alexander A. Auer      : GIAO ZORA, VPT2 properties, NMR spectrum
   Ute Becker             : Parallelization
   Giovanni Bistoni       : ED, misc. LED, open-shell LED, HFLD
   Martin Brehm           : Molecular dynamics
   Dmytro Bykov           : SCF Hessian
   Vijay G. Chilkuri      : MRCI spin determinant printing, contributions to CSF-ICE
   Dipayan Datta          : RHF DLPNO-CCSD density
   Achintya Kumar Dutta   : EOM-CC, STEOM-CC
   Dmitry Ganyushin       : Spin-Orbit,Spin-Spin,Magnetic field MRCI
   Miquel Garcia          : C-PCM and meta-GGA Hessian, CC/C-PCM, Gaussian charge scheme
   Yang Guo               : DLPNO-NEVPT2, F12-NEVPT2, CIM, IAO-localization
   Andreas Hansen         : Spin unrestricted coupled pair/coupled cluster methods
   Benjamin Helmich-Paris : MC-RPA, TRAH-SCF, COSX integrals
   Lee Huntington         : MR-EOM, pCC
   Robert Izsak           : Overlap fitted RIJCOSX, COSX-SCS-MP3, EOM
   Marcus Kettner         : VPT2
   Christian Kollmar      : KDIIS, OOCD, Brueckner-CCSD(T), CCSD density, CASPT2, CASPT2-K
   Simone Kossmann        : Meta GGA functionals, TD-DFT gradient, OOMP2, MP2 Hessian
   Martin Krupicka        : Initial AUTO-CI
   Lucas Lang             : DCDCAS
   Marvin Lechner         : AUTO-CI (C++ implementation), FIC-MRCC
   Dagmar Lenk            : GEPOL surface, SMD
   Dimitrios Liakos       : Extrapolation schemes; Compound Job, initial MDCI parallelization
   Dimitrios Manganas     : Further ROCIS development; embedding schemes
   Dimitrios Pantazis     : SARC Basis sets
   Anastasios Papadopoulos: AUTO-CI, single reference methods and gradients
   Taras Petrenko         : DFT Hessian,TD-DFT gradient, ASA, ECA, R-Raman, ABS, FL, XAS/XES, NRVS
   Peter Pinski           : DLPNO-MP2, DLPNO-MP2 Gradient
   Christoph Reimann      : Effective Core Potentials
   Marius Retegan         : Local ZFS, SOC
   Christoph Riplinger    : Optimizer, TS searches, QM/MM, DLPNO-CCSD(T), (RO)-DLPNO pert. Triples
   Tobias Risthaus        : Range-separated hybrids, TD-DFT gradient, RPA, STAB
   Michael Roemelt        : Original ROCIS implementation
   Masaaki Saitow         : Open-shell DLPNO-CCSD energy and density
   Barbara Sandhoefer     : DKH picture change effects
   Avijit Sen             : IP-ROCIS
   Kantharuban Sivalingam : CASSCF convergence, NEVPT2, FIC-MRCI
   Bernardo de Souza      : ESD, SOC TD-DFT
   Georgi Stoychev        : AutoAux, RI-MP2 NMR, DLPNO-MP2 response
   Willem Van den Heuvel  : Paramagnetic NMR
   Boris Wezisla          : Elementary symmetry handling
   Frank Wennmohs         : Technical directorship


 We gratefully acknowledge several colleagues who have allowed us to
 interface, adapt or use parts of their codes:
   Stefan Grimme, W. Hujo, H. Kruse, P. Pracht,  : VdW corrections, initial TS optimization,
                  C. Bannwarth, S. Ehlert          DFT functionals, gCP, sTDA/sTD-DF
   Ed Valeev, F. Pavosevic, A. Kumar             : LibInt (2-el integral package), F12 methods
   Garnet Chan, S. Sharma, J. Yang, R. Olivares  : DMRG
   Ulf Ekstrom                                   : XCFun DFT Library
   Mihaly Kallay                                 : mrcc  (arbitrary order and MRCC methods)
   Jiri Pittner, Ondrej Demel                    : Mk-CCSD
   Frank Weinhold                                : gennbo (NPA and NBO analysis)
   Christopher J. Cramer and Donald G. Truhlar   : smd solvation model
   Lars Goerigk                                  : TD-DFT with DH, B97 family of functionals
   V. Asgeirsson, H. Jonsson                     : NEB implementation
   FAccTs GmbH                                   : IRC, NEB, NEB-TS, DLPNO-Multilevel, CI-OPT
                                                   MM, QMMM, 2- and 3-layer-ONIOM, Crystal-QMMM,
                                                   LR-CPCM, SF, NACMEs, symmetry and pop. for TD-DFT,
                                                   nearIR, NL-DFT gradient (VV10), updates on ESD,
                                                   ML-optimized integration grids
   S Lehtola, MJT Oliveira, MAL Marques          : LibXC Library
   Liviu Ungur et al                             : ANISO software


 Your calculation uses the libint2 library for the computation of 2-el integrals
 For citations please refer to: http://libint.valeyev.net

 Your ORCA version has been built with support for libXC version: 5.1.0
 For citations please refer to: https://tddft.org/programs/libxc/

 This ORCA versions uses:
   CBLAS   interface :  Fast vector & matrix operations
   LAPACKE interface :  Fast linear algebra routines
   SCALAPACK package :  Parallel linear algebra routines
   Shared memory     :  Shared parallel matrices
   BLAS/LAPACK       :  OpenBLAS 0.3.15  USE64BITINT DYNAMIC_ARCH NO_AFFINITY Zen SINGLE_THREADED
        Core in use  :  Zen
   Copyright (c) 2011-2014, The OpenBLAS Project




***************************************
The coordinates will be read from file: input.xyz
***************************************


Your calculation utilizes the atom-pairwise dispersion correction
with the Becke-Johnson damping scheme (D3BJ)
Cite in your paper:
S.Grimme, S.Ehrlich, L.Goerigk, J Comput Chem, (2011), 32, 1456–1465 
S.Grimme, J.Antony, S.Ehrlich and H.Krieg, J.Chem.Phys., 132, (2010), 154104 
   

================================================================================

cite the ECPs for Pt [Def2-ECP] as follows:
Ce-Yb(ecp-28): M. Dolg, H. Stoll, H.Preuss, J. Chem. Phys., 1989, 90, 1730-1734.
Y-Cd(ecp-28), Hf-Hg(ecp-46): D. Andrae,U. Haeussermann, M. Dolg, H. Stoll, H. Preuss, Theor. Chim. Acta, 1990, 77, 123-141.
In-Sb(ecp-28), Tl-Bi(ecp-46): B. Metz, H. Stoll, M. Dolg, J. Chem. Phys., 2000, 113, 2563-2569.
Te-Xe(ecp-28), Po-Rn(ecp-46): K. A. Peterson, D. Figgen, E. Goll, H. Stoll, M. Dolg, J. Chem. Phys., 2003, 119, 11113-11123.
Rb(ecp-28), Cs(ecp-46): T. Leininger, A. Nicklass, W. Kuechle, H. Stoll, M. Dolg, A. Bergner, Chem. Phys. Lett., 1996, 255, 274-280.
Sr(ecp-28), Ba(ecp-46): M. Kaupp, P. V. Schleyer, H. Stoll and H. Preuss, J. Chem. Phys., 1991, 94, 1360-1366.
La(ecp-46): M. Dolg, H. Stoll, A. Savin, H. Preuss, Theor. Chim. Acta, 1989, 75, 173-194.
Lu(ecp-28): X. Cao, M. Dolg, J. Chem. Phys., 2001, 115, 7348-7355.

ECP parameters for Pt [Def2-ECP] have been obtained from:
TURBOMOLE (7.0.2)

----- Orbital basis set information -----
Your calculation utilizes the basis: def2-SVP
   F. Weigend and R. Ahlrichs, Phys. Chem. Chem. Phys. 7, 3297 (2005).

----- AuxJ basis set information -----
Your calculation utilizes the auxiliary basis: def2/J
   F. Weigend, Phys. Chem. Chem. Phys. 8, 1057 (2006).

================================================================================
                                        WARNINGS
                       Please study these warnings very carefully!
================================================================================


WARNING: Geometry Optimization
  ===> : Switching off AutoStart
         For restart on a previous wavefunction, please use MOREAD

INFO   : the flag for use of the SHARK integral package has been found!

================================================================================
                                       INPUT FILE
================================================================================
NAME = orca_opt.inp
|  1> ! BP86 def2-SVP D3 
|  2> ! OPT
|  3> ! CPCM(CH2Cl2)
|  4> 
|  5> %PAL NPROCS 8 END
|  6> 
|  7> %scf
|  8> maxiter 350
|  9> end
| 10> 
| 11> * xyzfile 0 1 input.xyz
| 12> 
| 13>                          ****END OF INPUT****
================================================================================

                       *****************************
                       * Geometry Optimization Run *
                       *****************************

Geometry optimization settings:
Update method            Update   .... BFGS
Choice of coordinates    CoordSys .... Z-matrix Internals
Initial Hessian          InHess   .... Almoef's Model

Convergence Tolerances:
Energy Change            TolE     ....  5.0000e-06 Eh
Max. Gradient            TolMAXG  ....  3.0000e-04 Eh/bohr
RMS Gradient             TolRMSG  ....  1.0000e-04 Eh/bohr
Max. Displacement        TolMAXD  ....  4.0000e-03 bohr
RMS Displacement         TolRMSD  ....  2.0000e-03 bohr
Strict Convergence                ....  False
------------------------------------------------------------------------------
                        ORCA OPTIMIZATION COORDINATE SETUP
------------------------------------------------------------------------------

The optimization will be done in new redundant internal coordinates
Making redundant internal coordinates   ...  (new redundants) done
Evaluating the initial hessian          ...  (Almloef) done
Evaluating the coordinates              ...  done
Calculating the B-matrix                .... done
Calculating the G-matrix                .... done
Diagonalizing the G-matrix              .... done
The first mode is                       ....   11
The number of degrees of freedom        ....   27

    -----------------------------------------------------------------
                    Redundant Internal Coordinates


    -----------------------------------------------------------------
         Definition                    Initial Value    Approx d2E/dq
    -----------------------------------------------------------------
      1. B(N   1,Pt  0)                  2.0738         0.063163   
      2. B(H   2,N   1)                  1.0324         0.398580   
      3. B(H   3,N   1)                  1.0321         0.399035   
      4. B(H   4,N   1)                  1.0346         0.395378   
      5. B(N   5,Pt  0)                  2.0743         0.063064   
      6. B(H   6,N   5)                  1.0318         0.399390   
      7. B(H   7,N   5)                  1.0350         0.394690   
      8. B(H   8,N   5)                  1.0327         0.398106   
      9. B(Cl  9,Pt  0)                  2.3454         0.058345   
     10. B(Cl 10,Pt  0)                  2.3451         0.058409   
     11. A(N   1,Pt  0,Cl  9)           85.8141         0.221284   
     12. A(N   1,Pt  0,N   5)           93.4817         0.215669   
     13. A(N   5,Pt  0,Cl 10)           85.8038         0.221270   
     14. A(Cl  9,Pt  0,Cl 10)           94.9005         0.227133   
     15. A(H   2,N   1,H   3)          107.2744         0.295489   
     16. A(H   3,N   1,H   4)          107.1477         0.295112   
     17. A(H   2,N   1,H   4)          107.2509         0.295059   
     18. A(Pt  0,N   1,H   3)          113.4455         0.250777   
     19. A(Pt  0,N   1,H   4)          107.8337         0.250440   
     20. A(Pt  0,N   1,H   2)          113.5414         0.250735   
     21. A(H   7,N   5,H   8)          107.2896         0.294922   
     22. A(H   6,N   5,H   8)          107.2246         0.295475   
     23. A(Pt  0,N   5,H   8)          113.4073         0.250634   
     24. A(H   6,N   5,H   7)          107.2788         0.295072   
     25. A(Pt  0,N   5,H   7)          107.9311         0.250319   
     26. A(Pt  0,N   5,H   6)          113.3830         0.250752   
     27. D(H   4,N   1,Pt  0,N   5)    179.9245         0.001681   
     28. D(H   3,N   1,Pt  0,Cl  9)    118.4465         0.001681   
     29. D(H   2,N   1,Pt  0,N   5)     61.2412         0.001681   
     30. D(H   4,N   1,Pt  0,Cl  9)     -0.0504         0.001681   
     31. D(H   3,N   1,Pt  0,N   5)    -61.5786         0.001681   
     32. D(H   2,N   1,Pt  0,Cl  9)   -118.7337         0.001681   
     33. D(H   6,N   5,Pt  0,N   1)    -61.3993         0.001681   
     34. D(H   8,N   5,Pt  0,Cl 10)   -118.7074         0.001681   
     35. D(H   8,N   5,Pt  0,N   1)     61.1973         0.001681   
     36. D(H   7,N   5,Pt  0,Cl 10)      0.0084         0.001681   
     37. D(H   7,N   5,Pt  0,N   1)    179.9131         0.001681   
     38. D(H   6,N   5,Pt  0,Cl 10)    118.6960         0.001681   
    -----------------------------------------------------------------

Number of atoms                         .... 11
Number of degrees of freedom            .... 38

         *************************************************************
         *                GEOMETRY OPTIMIZATION CYCLE   1            *
         *************************************************************
---------------------------------
CARTESIAN COORDINATES (ANGSTROEM)
---------------------------------
  Pt    -2.872000    0.148000    0.176000
  N     -0.889000    0.636000    0.537000
  H     -0.768000    1.543000    1.015000
  H     -0.310000    0.660000   -0.317000
  H     -0.491000   -0.092000    1.155000
  N     -3.193000    1.807000   -1.027000
  H     -3.056000    2.703000   -0.534000
  H     -4.176000    1.781000   -1.350000
  H     -2.594000    1.826000   -1.868000
  Cl    -2.482000   -1.719000    1.541000
  Cl    -5.116000   -0.382000   -0.252000

----------------------------
CARTESIAN COORDINATES (A.U.)
----------------------------
  NO LB      ZA    FRAG     MASS         X           Y           Z
   0 Pt   18.0000*   0   195.090   -5.427293    0.279679    0.332592
   1 N     7.0000    0    14.007   -1.679967    1.201866    1.014783
   2 H     1.0000    0     1.008   -1.451310    2.915847    1.918072
   3 H     1.0000    0     1.008   -0.585815    1.247219   -0.599043
   4 H     1.0000    0     1.008   -0.927856   -0.173855    2.182634
   5 N     7.0000    0    14.007   -6.033896    3.414735   -1.940749
   6 H     1.0000    0     1.008   -5.775003    5.107930   -1.009114
   7 H     1.0000    0     1.008   -7.891496    3.365602   -2.551130
   8 H     1.0000    0     1.008   -4.901950    3.450640   -3.530008
   9 Cl   17.0000    0    35.453   -4.690300   -3.248439    2.912068
  10 Cl   17.0000    0    35.453   -9.667839   -0.721875   -0.476211
* core charge reduced due to ECP

--------------------------------
INTERNAL COORDINATES (ANGSTROEM)
--------------------------------
 Pt     0   0   0     0.000000000000     0.00000000     0.00000000
 N      1   0   0     2.073825932908     0.00000000     0.00000000
 H      2   1   0     1.032363308143   113.54140020     0.00000000
 H      2   1   3     1.032052808726   113.44551769   237.18019808
 H      2   1   3     1.034558843179   107.83366798   118.68330818
 N      1   2   3     2.074254323847    93.48165180    61.24120199
 H      6   1   2     1.031811029210   113.38298921   298.60068449
 H      6   1   2     1.035033332797   107.93105415   179.91312025
 H      6   1   2     1.032687271152   113.40734369    61.19732126
 Cl     1   2   3     2.345424055475    85.81407515   241.26631216
 Cl     1   2   3     2.345126862240   179.27914694    68.81709918

---------------------------
INTERNAL COORDINATES (A.U.)
---------------------------
 Pt     0   0   0     0.000000000000     0.00000000     0.00000000
 N      1   0   0     3.918963062619     0.00000000     0.00000000
 H      2   1   0     1.950883923099   113.54140020     0.00000000
 H      2   1   3     1.950297164237   113.44551769   237.18019808
 H      2   1   3     1.955032883035   107.83366798   118.68330818
 N      1   2   3     3.919772604174    93.48165180    61.24120199
 H      6   1   2     1.949840267167   113.38298921   298.60068449
 H      6   1   2     1.955929538465   107.93105415   179.91312025
 H      6   1   2     1.951496124464   113.40734369    61.19732126
 Cl     1   2   3     4.432209132758    85.81407515   241.26631216
 Cl     1   2   3     4.431647518936   179.27914694    68.81709918

---------------------
BASIS SET INFORMATION
---------------------
There are 4 groups of distinct atoms

 Group   1 Type Pt  : 7s6p5d1f contracted to 6s3p2d1f pattern {211111/411/41/1}
 Group   2 Type N   : 7s4p1d contracted to 3s2p1d pattern {511/31/1}
 Group   3 Type H   : 4s1p contracted to 2s1p pattern {31/1}
 Group   4 Type Cl  : 10s7p1d contracted to 4s3p1d pattern {5311/511/1}

Atom   0Pt   basis set group =>   1
Atom   1N    basis set group =>   2
Atom   2H    basis set group =>   3
Atom   3H    basis set group =>   3
Atom   4H    basis set group =>   3
Atom   5N    basis set group =>   2
Atom   6H    basis set group =>   3
Atom   7H    basis set group =>   3
Atom   8H    basis set group =>   3
Atom   9Cl   basis set group =>   4
Atom  10Cl   basis set group =>   4
---------------------------------
AUXILIARY/J BASIS SET INFORMATION
---------------------------------
There are 4 groups of distinct atoms

 Group   1 Type Pt  : 11s5p5d3f3g contracted to 8s5p5d2f3g pattern {41111111/11111/11111/21/111}
 Group   2 Type N   : 12s5p4d2f1g contracted to 6s4p3d1f1g pattern {711111/2111/211/2/1}
 Group   3 Type H   : 5s2p1d contracted to 3s1p1d pattern {311/2/1}
 Group   4 Type Cl  : 14s5p5d2f1g contracted to 8s4p3d1f1g pattern {71111111/2111/311/2/1}

Atom   0Pt   basis set group =>   1
Atom   1N    basis set group =>   2
Atom   2H    basis set group =>   3
Atom   3H    basis set group =>   3
Atom   4H    basis set group =>   3
Atom   5N    basis set group =>   2
Atom   6H    basis set group =>   3
Atom   7H    basis set group =>   3
Atom   8H    basis set group =>   3
Atom   9Cl   basis set group =>   4
Atom  10Cl   basis set group =>   4
-------------------------
ECP PARAMETER INFORMATION
-------------------------

 Group 1, Type Pt ECP Def2-ECP (replacing 60 core electrons, lmax=3)

Atom   0Pt   ECP group =>   1



           ************************************************************
           *        Program running with 8 parallel MPI-processes     *
           *              working on a common directory               *
           ************************************************************
------------------------------------------------------------------------------
                           ORCA GTO INTEGRAL CALCULATION
                           -- RI-GTO INTEGRALS CHOSEN --
------------------------------------------------------------------------------
------------------------------------------------------------------------------
                   ___                                                        
                  /   \      - P O W E R E D   B Y -                         
                 /     \                                                     
                 |  |  |   _    _      __       _____    __    __             
                 |  |  |  | |  | |    /  \     |  _  \  |  |  /  |          
                  \  \/   | |  | |   /    \    | | | |  |  | /  /          
                 / \  \   | |__| |  /  /\  \   | |_| |  |  |/  /          
                |  |  |   |  __  | /  /__\  \  |    /   |      \           
                |  |  |   | |  | | |   __   |  |    \   |  |\   \          
                \     /   | |  | | |  |  |  |  | |\  \  |  | \   \       
                 \___/    |_|  |_| |__|  |__|  |_| \__\ |__|  \__/        
                                                                              
                      - O R C A' S   B I G   F R I E N D -                    
                                      &                                       
                       - I N T E G R A L  F E E D E R -                       
                                                                              
 v1 FN, 2020, v2 2021                                                         
------------------------------------------------------------------------------


Reading SHARK input file orca_opt.SHARKINP.tmp ... ok
----------------------
SHARK INTEGRAL PACKAGE
----------------------

Number of atoms                             ...     11
Number of basis functions                   ...    126
Number of shells                            ...     58
Maximum angular momentum                    ...      3
Integral batch strategy                     ... SHARK/LIBINT Hybrid
RI-J (if used) integral strategy            ... SPLIT-RIJ (Revised 2003 algorithm where possible)
Printlevel                                  ...      1
Contraction scheme used                     ... SEGMENTED contraction
Coulomb Range Separation                    ... NOT USED
Exchange Range Separation                   ... NOT USED
Finite Nucleus Model                        ... NOT USED
Auxiliary Coulomb fitting basis             ... AVAILABLE
   # of basis functions in Aux-J            ...    355
   # of shells in Aux-J                     ...    117
   Maximum angular momentum in Aux-J        ...      4
Auxiliary J/K fitting basis                 ... NOT available
Auxiliary Correlation fitting basis         ... NOT available
Auxiliary 'external' fitting basis          ... NOT available
Integral threshold                          ...     2.500000e-11
Primitive cut-off                           ...     2.500000e-12
Primitive pair pre-selection threshold      ...     2.500000e-12

Calculating pre-screening integrals         ... done (  0.0 sec) Dimension = 58
Organizing shell pair data                  ... done (  0.0 sec)
Shell pair information
Total number of shell pairs                 ...      1711
Shell pairs after pre-screening             ...      1588
Total number of primitive shell pairs       ...      6098
Primitive shell pairs kept                  ...      4225
          la=0 lb=0:    485 shell pairs
          la=1 lb=0:    558 shell pairs
          la=1 lb=1:    170 shell pairs
          la=2 lb=0:    184 shell pairs
          la=2 lb=1:    112 shell pairs
          la=2 lb=2:     21 shell pairs
          la=3 lb=0:     32 shell pairs
          la=3 lb=1:     19 shell pairs
          la=3 lb=2:      6 shell pairs
          la=3 lb=3:      1 shell pairs

Calculating one electron integrals          ... done (  0.0 sec)
Calculating ECP integrals                   ... done (  0.1 sec)
Calculating RI/J V-Matrix + Cholesky decomp.... done (  0.0 sec)
Calculating Nuclear repulsion               ... done (  0.0 sec) ENN=    406.041281526591 Eh

SHARK setup successfully completed in   0.2 seconds

Maximum memory used throughout the entire GTOINT-calculation: 14.5 MB


           ************************************************************
           *        Program running with 8 parallel MPI-processes     *
           *              working on a common directory               *
           ************************************************************
-------------------------------------------------------------------------------
                                 ORCA SCF
-------------------------------------------------------------------------------

------------
SCF SETTINGS
------------
Hamiltonian:
 Density Functional     Method          .... DFT(GTOs)
 Exchange Functional    Exchange        .... B88
   X-Alpha parameter    XAlpha          ....  0.666667
   Becke's b parameter  XBeta           ....  0.004200
 Correlation Functional Correlation     .... P86
 LDA part of GGA corr.  LDAOpt          .... PW91-LDA
 Gradients option       PostSCFGGA      .... off
   Density functional embedding theory  .... OFF
   NL short-range parameter             ....  4.400000
 RI-approximation to the Coulomb term is turned on
   Number of AuxJ basis functions       .... 355


General Settings:
 Integral files         IntName         .... orca_opt
 Hartree-Fock type      HFTyp           .... RHF
 Total Charge           Charge          ....    0
 Multiplicity           Mult            ....    1
 Number of Electrons    NEL             ....   72
 Basis Dimension        Dim             ....  126
 Nuclear Repulsion      ENuc            ....    406.0412815266 Eh

Convergence Acceleration:
 DIIS                   CNVDIIS         .... on
   Start iteration      DIISMaxIt       ....    12
   Startup error        DIISStart       ....  0.200000
   # of expansion vecs  DIISMaxEq       ....     5
   Bias factor          DIISBfac        ....   1.050
   Max. coefficient     DIISMaxC        ....  10.000
 Trust-Rad. Augm. Hess. CNVTRAH         .... auto
   Auto Start mean grad. ratio tolernc. ....  1.125000
   Auto Start start iteration           ....    20
   Auto Start num. interpolation iter.  ....    10
   Max. Number of Micro iterations      ....    16
   Max. Number of Macro iterations      .... Maxiter - #DIIS iter
   Number of Davidson start vectors     ....     2
   Converg. threshold I  (grad. norm)   ....   1.000e-05
   Converg. threshold II (energy diff.) ....   1.000e-08
   Grad. Scal. Fac. for Micro threshold ....   0.100
   Minimum threshold for Micro iter.    ....   0.010
   NR start threshold (gradient norm)   ....   0.001
   Initial trust radius                 ....   0.400
   Minimum AH scaling param. (alpha)    ....   1.000
   Maximum AH scaling param. (alpha)    .... 1000.000
   Orbital update algorithm             .... Taylor
   White noise on init. David. guess    .... on
   Maximum white noise                  ....   0.010
   Quad. conv. algorithm                .... NR
 SOSCF                  CNVSOSCF        .... off
 Level Shifting         CNVShift        .... on
   Level shift para.    LevelShift      ....    0.2500
   Turn off err/grad.   ShiftErr        ....    0.0010
 Zerner damping         CNVZerner       .... off
 Static damping         CNVDamp         .... on
   Fraction old density DampFac         ....    0.7000
   Max. Damping (<1)    DampMax         ....    0.9800
   Min. Damping (>=0)   DampMin         ....    0.0000
   Turn off err/grad.   DampErr         ....    0.1000
 Fernandez-Rico         CNVRico         .... off

SCF Procedure:
 Maximum # iterations   MaxIter         ....   350
 SCF integral mode      SCFMode         .... Direct
   Integral package                     .... SHARK and LIBINT hybrid scheme
 Reset frequency        DirectResetFreq ....    20
 Integral Threshold     Thresh          ....  2.500e-11 Eh
 Primitive CutOff       TCut            ....  2.500e-12 Eh

Convergence Tolerance:
 Convergence Check Mode ConvCheckMode   .... Total+1el-Energy
 Convergence forced     ConvForced      .... 0
 Energy Change          TolE            ....  1.000e-08 Eh
 1-El. energy change                    ....  1.000e-05 Eh
 DIIS Error             TolErr          ....  5.000e-07


Diagonalization of the overlap matrix:
Smallest eigenvalue                        ... 7.525e-03
Time for diagonalization                   ...    0.002 sec
Threshold for overlap eigenvalues          ... 1.000e-08
Number of eigenvalues below threshold      ... 0
Time for construction of square roots      ...    0.002 sec
Total time needed                          ...    0.005 sec

Time for model grid setup =    0.044 sec

------------------------------
INITIAL GUESS: MODEL POTENTIAL
------------------------------
Loading Hartree-Fock densities                     ... done
  calling /usr/local/bin/orca_5.0.3/orca orca_opt_atom78.inp > orca_opt_atom78.out in order to generate an atomic fitting density for atom 0 (Pt with ECP) on-the-fly... 
    atom 0 (Pt), assumed electronic state with S=3: 1s2 2s2 2p6 3s2 3p6 4s2 3d10 4p6 5s2 4d10 5p6 6s2 4f14 5d8           ... done
Calculating cut-offs                               ... done
Initializing the effective Hamiltonian             ... done
Setting up the integral package (SHARK)            ... done
Starting the Coulomb interaction                   ... done (   0.0 sec)
Reading the grid                                   ... done
Mapping shells                                     ... done
Starting the XC term evaluation                    ... done (   0.0 sec)
  promolecular density results
     # of electrons  =    131.999213731
     EX              =   -428.774120259
     EC              =     -7.669816664
     EX+EC           =   -436.443936924
Transforming the Hamiltonian                       ... done (   0.0 sec)
Diagonalizing the Hamiltonian                      ... done (   0.0 sec)
Back transforming the eigenvectors                 ... done (   0.0 sec)
Now organizing SCF variables                       ... done
                      ------------------
                      INITIAL GUESS DONE (   0.7 sec)
                      ------------------
-------------------
DFT GRID GENERATION
-------------------

General Integration Accuracy     IntAcc      ... 4.388
Radial Grid Type                 RadialGrid  ... OptM3 with GC (2021)
Angular Grid (max. ang.)         AngularGrid ... 4 (Lebedev-302)
Angular grid pruning method      GridPruning ... 4 (adaptive)
Weight generation scheme         WeightScheme... Becke
Basis function cutoff            BFCut       ... 1.0000e-11
Integration weight cutoff        WCut        ... 1.0000e-14
Angular grids for H and He will be reduced by one unit
Partially contracted basis set               ... off
Rotationally invariant grid construction     ... off

Total number of grid points                  ...    57608
Total number of batches                      ...      906
Average number of points per batch           ...       63
Average number of grid points per atom       ...     5237
Time for grid setup =    0.246 sec


--------------------
CPCM SOLVATION MODEL
--------------------
CPCM parameters:
  Epsilon                                         ...       9.0800
  Refrac                                          ...       1.4240
  Rsolv                                           ...       1.3000
  Surface type                                    ... GAUSSIAN VDW
  Epsilon function type                           ...         CPCM
Radii:
 Radius for Pt used is    3.9004 Bohr (=   2.0640 Ang.)
 Radius for N  used is    3.5149 Bohr (=   1.8600 Ang.)
 Radius for H  used is    2.4944 Bohr (=   1.3200 Ang.)
 Radius for Cl used is    3.9684 Bohr (=   2.1000 Ang.)
Calculating surface                               ...        done! (  0.0s)
GEPOL surface points                              ...          768
GEPOL Volume                                      ...     943.1364
GEPOL Surface-area                                ...     574.4700
Calculating surface distance matrix               ...        done! (  0.0s)
Performing Cholesky decomposition & store         ...        done! (  0.0s)
Overall time for CPCM initialization              ...                 0.0s
--------------
SCF ITERATIONS
--------------
ITER       Energy         Delta-E        Max-DP      RMS-DP      [F,P]     Damp
               ***  Starting incremental Fock matrix formation  ***
  0  -1152.7418096753   0.000000000000 0.22413655  0.00370258  0.5075573 0.7000
  1  -1152.8200916331  -0.078281957808 0.14560494  0.00240965  0.3488255 0.7000
  2  -1152.8481713504  -0.028079717224 0.08827933  0.00127797  0.2391399 0.7000
                               ***Turning on DIIS***
  3  -1152.8658396846  -0.017668334255 0.05820123  0.00077418  0.1656125 0.7000
  4  -1152.8787374825  -0.012897797868 0.04225168  0.00050422  0.1155256 0.7000
  5  -1152.8876718316  -0.008934349093 0.09597071  0.00110771  0.0806426 0.0000
  6  -1152.9084679542  -0.020796122578 0.00642249  0.00014263  0.0020564 0.0000
  7  -1152.9084836619  -0.000015707757 0.00129207  0.00003680  0.0010856 0.0000
  8  -1152.9084929537  -0.000009291749 0.00085715  0.00003365  0.0004441 0.0000
  9  -1152.9084943986  -0.000001444936 0.00028775  0.00000794  0.0001287 0.0000
 10  -1152.9084944719  -0.000000073333 0.00017509  0.00000413  0.0001110 0.0000
 11  -1152.9084945143  -0.000000042410 0.00004915  0.00000128  0.0000367 0.0000
 12  -1152.9084945184  -0.000000004090 0.00000461  0.00000017  0.0000044 0.0000
 13  -1152.9084945203  -0.000000001879 0.00000128  0.00000005  0.0000013 0.0000
                            ***DIIS convergence achieved***

               *****************************************************
               *                     SUCCESS                       *
               *           SCF CONVERGED AFTER  14 CYCLES          *
               *****************************************************


----------------
TOTAL SCF ENERGY
----------------

Total Energy       :        -1152.90849452 Eh          -31372.23507 eV

Components:
Nuclear Repulsion  :          406.04128153 Eh           11048.94499 eV
Electronic Energy  :        -1558.94977604 Eh          -42421.18006 eV
One Electron Energy:        -2443.83605957 Eh          -66500.15998 eV
Two Electron Energy:          884.88628352 Eh           24078.97993 eV
CPCM Dielectric    :           -0.05602745 Eh              -1.52458 eV

Virial components:
Potential Energy   :        -2222.94786159 Eh          -60489.48654 eV
Kinetic Energy     :         1070.03936707 Eh           29117.25147 eV
Virial Ratio       :            2.07744493


DFT components:
N(Alpha)           :       36.000017746483 electrons
N(Beta)            :       36.000017746483 electrons
N(Total)           :       72.000035492967 electrons
E(X)               :      -81.400475285265 Eh       
E(C)               :       -3.060454973644 Eh       
E(XC)              :      -84.460930258909 Eh       
DFET-embed. en.    :        0.000000000000 Eh       
CPCM Solvation Model Properties:
Surface-charge          :           -0.01862295
Charge-correction       :            0.00016717 Eh               0.00455 eV
Free-energy (cav+disp)  :  This term is not implemented in the current solvation scheme

---------------
SCF CONVERGENCE
---------------

  Last Energy change         ...    2.0600e-09  Tolerance :   1.0000e-08
  Last MAX-Density change    ...    8.6753e-07  Tolerance :   1.0000e-07
  Last RMS-Density change    ...    3.1270e-08  Tolerance :   5.0000e-09
  Last DIIS Error            ...    6.4021e-07  Tolerance :   5.0000e-07

             **** THE GBW FILE WAS UPDATED (orca_opt.gbw) ****
             **** DENSITY orca_opt.scfp WAS UPDATED ****
             **** ENERGY FILE WAS UPDATED (orca_opt.en.tmp) ****
             **** THE GBW FILE WAS UPDATED (orca_opt.gbw) ****
             **** DENSITY orca_opt.scfp WAS UPDATED ****
----------------
ORBITAL ENERGIES
----------------

  NO   OCC          E(Eh)            E(eV) 
   0   2.0000    -100.645798     -2738.7114 
   1   2.0000    -100.645754     -2738.7102 
   2   2.0000     -14.076848      -383.0505 
   3   2.0000     -14.076743      -383.0476 
   4   2.0000      -9.127788      -248.3797 
   5   2.0000      -9.127754      -248.3788 
   6   2.0000      -6.955881      -189.2791 
   7   2.0000      -6.955865      -189.2787 
   8   2.0000      -6.949076      -189.0940 
   9   2.0000      -6.949036      -189.0929 
  10   2.0000      -6.949033      -189.0928 
  11   2.0000      -6.948991      -189.0917 
  12   2.0000      -3.785770      -103.0160 
  13   2.0000      -2.079591       -56.5885 
  14   2.0000      -2.076573       -56.5064 
  15   2.0000      -2.036136       -55.4061 
  16   2.0000      -0.830096       -22.5881 
  17   2.0000      -0.824582       -22.4380 
  18   2.0000      -0.685109       -18.6428 
  19   2.0000      -0.678830       -18.4719 
  20   2.0000      -0.477614       -12.9965 
  21   2.0000      -0.471730       -12.8364 
  22   2.0000      -0.466081       -12.6827 
  23   2.0000      -0.461413       -12.5557 
  24   2.0000      -0.398086       -10.8325 
  25   2.0000      -0.394624       -10.7383 
  26   2.0000      -0.293245        -7.9796 
  27   2.0000      -0.290537        -7.9059 
  28   2.0000      -0.278555        -7.5799 
  29   2.0000      -0.267861        -7.2889 
  30   2.0000      -0.264794        -7.2054 
  31   2.0000      -0.228430        -6.2159 
  32   2.0000      -0.207277        -5.6403 
  33   2.0000      -0.203076        -5.5260 
  34   2.0000      -0.197074        -5.3626 
  35   2.0000      -0.192167        -5.2291 
  36   0.0000      -0.075882        -2.0648 
  37   0.0000       0.000107         0.0029 
  38   0.0000       0.017073         0.4646 
  39   0.0000       0.042774         1.1639 
  40   0.0000       0.061194         1.6652 
  41   0.0000       0.085662         2.3310 
  42   0.0000       0.091893         2.5005 
  43   0.0000       0.108583         2.9547 
  44   0.0000       0.119212         3.2439 
  45   0.0000       0.131013         3.5650 
  46   0.0000       0.146049         3.9742 
  47   0.0000       0.175588         4.7780 
  48   0.0000       0.317926         8.6512 
  49   0.0000       0.344392         9.3714 
  50   0.0000       0.348184         9.4746 
  51   0.0000       0.436369        11.8742 
  52   0.0000       0.498258        13.5583 
  53   0.0000       0.498978        13.5779 
  54   0.0000       0.503809        13.7093 
  55   0.0000       0.521589        14.1932 
  56   0.0000       0.538470        14.6525 
  57   0.0000       0.550077        14.9683 
  58   0.0000       0.554304        15.0834 
  59   0.0000       0.574758        15.6400 
  60   0.0000       0.619095        16.8464 
  61   0.0000       0.620670        16.8893 
  62   0.0000       0.669077        18.2065 
  63   0.0000       0.686118        18.6702 
  64   0.0000       0.721610        19.6360 
  65   0.0000       0.739045        20.1104 
  66   0.0000       0.752418        20.4743 
  67   0.0000       0.766315        20.8525 
  68   0.0000       0.771227        20.9862 
  69   0.0000       0.780177        21.2297 
  70   0.0000       0.786112        21.3912 
  71   0.0000       0.792967        21.5777 
  72   0.0000       0.809508        22.0278 
  73   0.0000       0.816406        22.2155 
  74   0.0000       0.825475        22.4623 
  75   0.0000       0.830111        22.5885 
  76   0.0000       0.838614        22.8199 
  77   0.0000       0.851280        23.1645 
  78   0.0000       0.855136        23.2694 
  79   0.0000       0.916850        24.9488 
  80   0.0000       0.955150        25.9909 
  81   0.0000       0.957037        26.0423 
  82   0.0000       0.959495        26.1092 
  83   0.0000       1.066526        29.0216 
  84   0.0000       1.115566        30.3561 
  85   0.0000       1.150219        31.2991 
  86   0.0000       1.193151        32.4673 
  87   0.0000       1.228954        33.4415 
  88   0.0000       1.278838        34.7989 
  89   0.0000       1.280331        34.8396 
  90   0.0000       1.325724        36.0748 
  91   0.0000       1.330037        36.1921 
  92   0.0000       1.382150        37.6102 
  93   0.0000       1.418612        38.6024 
  94   0.0000       1.420897        38.6646 
  95   0.0000       1.438318        39.1386 
  96   0.0000       1.438636        39.1473 
  97   0.0000       1.484799        40.4034 
  98   0.0000       1.485292        40.4169 
  99   0.0000       1.517180        41.2846 
 100   0.0000       1.521540        41.4032 
 101   0.0000       1.813693        49.3531 
 102   0.0000       1.828601        49.7588 
 103   0.0000       1.869183        50.8631 
 104   0.0000       1.894164        51.5428 
 105   0.0000       1.960527        53.3487 
 106   0.0000       1.966228        53.5038 
 107   0.0000       1.971601        53.6500 
 108   0.0000       1.974146        53.7192 
 109   0.0000       2.063383        56.1475 
 110   0.0000       2.118263        57.6409 
 111   0.0000       2.317958        63.0748 
 112   0.0000       2.336797        63.5875 
 113   0.0000       2.395253        65.1781 
 114   0.0000       2.634434        71.6866 
 115   0.0000       2.636965        71.7555 
 116   0.0000       2.637968        71.7828 
 117   0.0000       2.658978        72.3545 
 118   0.0000       2.788682        75.8839 
 119   0.0000       2.797391        76.1209 
 120   0.0000       3.158799        85.9553 
 121   0.0000       3.163457        86.0820 
 122   0.0000       3.207592        87.2830 
 123   0.0000       3.244682        88.2923 
 124   0.0000      51.082558      1390.0271 
 125   0.0000     282.884279      7697.6726 

                    ********************************
                    * MULLIKEN POPULATION ANALYSIS *
                    ********************************

-----------------------
MULLIKEN ATOMIC CHARGES
-----------------------
   0 Pt:   -0.154567
   1 N :   -0.150746
   2 H :    0.202914
   3 H :    0.202744
   4 H :    0.175048
   5 N :   -0.151176
   6 H :    0.202870
   7 H :    0.175389
   8 H :    0.203119
   9 Cl:   -0.352752
  10 Cl:   -0.352840
Sum of atomic charges:    0.0000000

--------------------------------
MULLIKEN REDUCED ORBITAL CHARGES
--------------------------------
  0 Pts       :     2.858919  s :     2.858919
      pz      :     2.141387  p :     6.433091
      px      :     2.138441
      py      :     2.153263
      dz2     :     1.895308  d :     8.838290
      dxz     :     1.972762
      dyz     :     1.643562
      dx2y2   :     1.449331
      dxy     :     1.877327
      f0      :     0.002275  f :     0.024267
      f+1     :     0.002518
      f-1     :     0.002417
      f+2     :     0.005673
      f-2     :     0.002153
      f+3     :     0.004688
      f-3     :     0.004541
  1 N s       :     3.376758  s :     3.376758
      pz      :     1.181074  p :     3.758822
      px      :     1.397890
      py      :     1.179858
      dz2     :     0.000823  d :     0.015167
      dxz     :     0.005399
      dyz     :     0.003364
      dx2y2   :     0.002609
      dxy     :     0.002971
  2 H s       :     0.755074  s :     0.755074
      pz      :     0.012149  p :     0.042012
      px      :     0.008865
      py      :     0.020998
  3 H s       :     0.755207  s :     0.755207
      pz      :     0.020724  p :     0.042049
      px      :     0.012395
      py      :     0.008930
  4 H s       :     0.781845  s :     0.781845
      pz      :     0.014564  p :     0.043108
      px      :     0.009833
      py      :     0.018710
  5 N s       :     3.377002  s :     3.377002
      pz      :     1.253590  p :     3.759032
      px      :     1.186409
      py      :     1.319033
      dz2     :     0.002982  d :     0.015142
      dxz     :     0.004062
      dyz     :     0.002177
      dx2y2   :     0.004797
      dxy     :     0.001124
  6 H s       :     0.755080  s :     0.755080
      pz      :     0.013665  p :     0.042051
      px      :     0.009296
      py      :     0.019090
  7 H s       :     0.781564  s :     0.781564
      pz      :     0.009516  p :     0.043047
      px      :     0.024410
      py      :     0.009122
  8 H s       :     0.754883  s :     0.754883
      pz      :     0.018265  p :     0.041999
      px      :     0.014786
      py      :     0.008948
  9 Cls       :     5.935136  s :     5.935136
      pz      :     3.797661  p :    11.400302
      px      :     3.897884
      py      :     3.704756
      dz2     :     0.003617  d :     0.017314
      dxz     :     0.001908
      dyz     :     0.005114
      dx2y2   :     0.003566
      dxy     :     0.003109
 10 Cls       :     5.935128  s :     5.935128
      pz      :     3.900653  p :    11.400384
      px      :     3.598588
      py      :     3.901143
      dz2     :     0.002091  d :     0.017328
      dxz     :     0.004789
      dyz     :     0.000724
      dx2y2   :     0.004747
      dxy     :     0.004977


                     *******************************
                     * LOEWDIN POPULATION ANALYSIS *
                     *******************************

----------------------
LOEWDIN ATOMIC CHARGES
----------------------
   0 Pt:   -0.789234
   1 N :    0.122494
   2 H :    0.129280
   3 H :    0.129130
   4 H :    0.109840
   5 N :    0.122317
   6 H :    0.129045
   7 H :    0.110065
   8 H :    0.129418
   9 Cl:   -0.096211
  10 Cl:   -0.096144

-------------------------------
LOEWDIN REDUCED ORBITAL CHARGES
-------------------------------
  0 Pts       :     2.768816  s :     2.768816
      pz      :     2.206259  p :     6.728450
      px      :     2.271623
      py      :     2.250569
      dz2     :     1.950486  d :     9.249664
      dxz     :     2.026895
      dyz     :     1.744576
      dx2y2   :     1.579555
      dxy     :     1.948152
      f0      :     0.003949  f :     0.042305
      f+1     :     0.004570
      f-1     :     0.003888
      f+2     :     0.010281
      f-2     :     0.003406
      f+3     :     0.008320
      f-3     :     0.007891
  1 N s       :     3.059191  s :     3.059191
      pz      :     1.196359  p :     3.780340
      px      :     1.386585
      py      :     1.197397
      dz2     :     0.002955  d :     0.037975
      dxz     :     0.012047
      dyz     :     0.009711
      dx2y2   :     0.007348
      dxy     :     0.005915
  2 H s       :     0.758323  s :     0.758323
      pz      :     0.029049  p :     0.112397
      px      :     0.027160
      py      :     0.056188
  3 H s       :     0.758375  s :     0.758375
      pz      :     0.052818  p :     0.112495
      px      :     0.041146
      py      :     0.018531
  4 H s       :     0.773645  s :     0.773645
      pz      :     0.036988  p :     0.116515
      px      :     0.033261
      py      :     0.046266
  5 N s       :     3.059347  s :     3.059347
      pz      :     1.259573  p :     3.780413
      px      :     1.201877
      py      :     1.318963
      dz2     :     0.006336  d :     0.037923
      dxz     :     0.010534
      dyz     :     0.006429
      dx2y2   :     0.012627
      dxy     :     0.001996
  6 H s       :     0.758371  s :     0.758371
      pz      :     0.033367  p :     0.112585
      px      :     0.019619
      py      :     0.059599
  7 H s       :     0.773581  s :     0.773581
      pz      :     0.025277  p :     0.116353
      px      :     0.067071
      py      :     0.024005
  8 H s       :     0.758251  s :     0.758251
      pz      :     0.053098  p :     0.112331
      px      :     0.035470
      py      :     0.023763
  9 Cls       :     5.760228  s :     5.760228
      pz      :     3.769544  p :    11.316831
      px      :     3.866120
      py      :     3.681168
      dz2     :     0.003920  d :     0.019151
      dxz     :     0.002153
      dyz     :     0.005641
      dx2y2   :     0.004075
      dxy     :     0.003363
 10 Cls       :     5.760141  s :     5.760141
      pz      :     3.865363  p :    11.316834
      px      :     3.587565
      py      :     3.863906
      dz2     :     0.002307  d :     0.019169
      dxz     :     0.005280
      dyz     :     0.000747
      dx2y2   :     0.005193
      dxy     :     0.005642


                      *****************************
                      * MAYER POPULATION ANALYSIS *
                      *****************************

  NA   - Mulliken gross atomic population
  ZA   - Total nuclear charge
  QA   - Mulliken gross atomic charge
  VA   - Mayer's total valence
  BVA  - Mayer's bonded valence
  FA   - Mayer's free valence

  ATOM       NA         ZA         QA         VA         BVA        FA
  0 Pt    18.1546    18.0000    -0.1546     3.0534     3.0534     0.0000
  1 N      7.1507     7.0000    -0.1507     3.5189     3.5189    -0.0000
  2 H      0.7971     1.0000     0.2029     0.9460     0.9460     0.0000
  3 H      0.7973     1.0000     0.2027     0.9460     0.9460     0.0000
  4 H      0.8250     1.0000     0.1750     0.9979     0.9979     0.0000
  5 N      7.1512     7.0000    -0.1512     3.5188     3.5188     0.0000
  6 H      0.7971     1.0000     0.2029     0.9460     0.9460    -0.0000
  7 H      0.8246     1.0000     0.1754     0.9977     0.9977     0.0000
  8 H      0.7969     1.0000     0.2031     0.9459     0.9459     0.0000
  9 Cl    17.3528    17.0000    -0.3528     1.0914     1.0914     0.0000
 10 Cl    17.3528    17.0000    -0.3528     1.0913     1.0913    -0.0000

  Mayer bond orders larger than 0.100000
B(  0-Pt,  1-N ) :   0.6049 B(  0-Pt,  5-N ) :   0.6049 B(  0-Pt,  9-Cl) :   0.9024 
B(  0-Pt, 10-Cl) :   0.9024 B(  1-N ,  2-H ) :   0.9361 B(  1-N ,  3-H ) :   0.9363 
B(  1-N ,  4-H ) :   0.9186 B(  1-N , 10-Cl) :   0.1128 B(  5-N ,  6-H ) :   0.9363 
B(  5-N ,  7-H ) :   0.9185 B(  5-N ,  8-H ) :   0.9361 B(  5-N ,  9-Cl) :   0.1128 


-------
TIMINGS
-------

Total SCF time: 0 days 0 hours 0 min 3 sec 

Total time                  ....       3.289 sec
Sum of individual times     ....       3.184 sec  ( 96.8%)

Fock matrix formation       ....       2.148 sec  ( 65.3%)
  Split-RI-J                ....       0.309 sec  ( 14.4% of F)
  XC integration            ....       0.689 sec  ( 32.1% of F)
    Basis function eval.    ....       0.148 sec  ( 21.4% of XC)
    Density eval.           ....       0.115 sec  ( 16.7% of XC)
    XC-Functional eval.     ....       0.036 sec  (  5.2% of XC)
    XC-Potential eval.      ....       0.093 sec  ( 13.5% of XC)
Diagonalization             ....       0.037 sec  (  1.1%)
Density matrix formation    ....       0.002 sec  (  0.1%)
Population analysis         ....       0.005 sec  (  0.2%)
Initial guess               ....       0.662 sec  ( 20.1%)
Orbital Transformation      ....       0.000 sec  (  0.0%)
Orbital Orthonormalization  ....       0.000 sec  (  0.0%)
DIIS solution               ....       0.040 sec  (  1.2%)
Grid generation             ....       0.290 sec  (  8.8%)

Maximum memory used throughout the entire SCF-calculation: 18.9 MB


-------------------------------------------------------------------------------
                          DFT DISPERSION CORRECTION                            
                                                                               
                              DFTD3 V3.1  Rev 1                                
                          USING Becke-Johnson damping                          
-------------------------------------------------------------------------------
The BP86 functional is recognized
Active option DFTDOPT                   ...         4   

molecular C6(AA) [au] = 3120.712530 


            DFT-D V3
 parameters
 s6 scaling factor         :     1.0000 
 a1 scaling factor         :     0.3946 
 s8 scaling factor         :     3.2822 
 a2 scaling factor         :     4.8516 
 ad hoc parameters k1-k3   :    16.0000     1.3333    -4.0000 

 Edisp/kcal,au: -13.194966500411  -0.021027515342 
 E6   /kcal   :  -4.071206320 
 E8   /kcal   :  -9.123760181 
 % E8         :  69.145762368 

-------------------------   ----------------
Dispersion correction           -0.021027515
-------------------------   ----------------


-------------------------   --------------------
FINAL SINGLE POINT ENERGY     -1152.929522033586
-------------------------   --------------------



           ************************************************************
           *        Program running with 8 parallel MPI-processes     *
           *              working on a common directory               *
           ************************************************************
------------------------------------------------------------------------------
                         ORCA SCF GRADIENT CALCULATION
------------------------------------------------------------------------------

Gradient of the Kohn-Sham DFT energy:
Kohn-Sham wavefunction type      ... RKS
Hartree-Fock exchange scaling    ...    0.000
Number of operators              ...    1
Number of atoms                  ...   11
Basis set dimensions             ...  126
Integral neglect threshold       ... 2.5e-11
Integral primitive cutoff        ... 2.5e-12
SHARK Integral package           ... ON

Nuc. rep. gradient       (SHARK) ... done (  0.0 sec)
HCore & Overlap gradient (SHARK) ... done (  0.0 sec)
ECP gradient             (SHARK) ... done (  0.2 sec)
RI-J gradient            (SHARK) ... done (  0.2 sec)
Exchange-correlation gradient    ... done
Dispersion correction            ... done

------------------
CARTESIAN GRADIENT
------------------

   1   Pt  :    0.000184534    0.000073329    0.000044981
   2   N   :   -0.000026449   -0.000374188    0.000047018
   3   H   :    0.000116352    0.000160924    0.000136049
   4   H   :    0.000105245   -0.000062902    0.000126062
   5   H   :   -0.000025727    0.000273013   -0.000299524
   6   N   :   -0.000309519    0.000200085    0.000480057
   7   H   :   -0.000077674   -0.000146605   -0.000152944
   8   H   :   -0.000024763    0.000094538   -0.000040979
   9   H   :    0.000267118    0.000061087   -0.000441893
  10   Cl  :   -0.000017674   -0.000202754    0.000116790
  11   Cl  :   -0.000191442   -0.000076527   -0.000015617

Difference to translation invariance:
           :    0.0000000000    0.0000000000    0.0000000000

Difference to rotation invariance:
           :    0.0001665641    0.0002146694   -0.0000098152

Norm of the cartesian gradient     ...    0.0011111998
RMS gradient                       ...    0.0001934351
MAX gradient                       ...    0.0004800571

-------
TIMINGS
-------

Total SCF gradient time            ...        0.989 sec

One electron gradient       ....       0.229 sec  ( 23.2%)
RI-J Coulomb gradient       ....       0.211 sec  ( 21.3%)
XC gradient                 ....       0.189 sec  ( 19.1%)
CPCM gradient               ....       0.072 sec  (  7.3%)
   A-Matrix (El+Nuc)        ....       0.029 sec  (  2.9%)
   Potential                ....       0.044 sec  (  4.4%)

Maximum memory used throughout the entire SCFGRAD-calculation: 27.7 MB
------------------------------------------------------------------------------
                         ORCA GEOMETRY RELAXATION STEP
------------------------------------------------------------------------------

Reading the OPT-File                    .... done
Getting information on internals        .... done
Copying old internal coords+grads       .... done
Making the new internal coordinates     .... (new redundants).... done
Validating the new internal coordinates .... (new redundants).... done
Calculating the B-matrix                .... done
Calculating the G,G- and P matrices     .... done
Transforming gradient to internals      .... done
Projecting the internal gradient        .... done
Number of atoms                         ....  11
Number of internal coordinates          ....  38
Current Energy                          .... -1152.929522034 Eh
Current gradient norm                   ....     0.001111200 Eh/bohr
Maximum allowed component of the step   ....  0.300
Current trust radius                    ....  0.300
Evaluating the initial hessian          ....  (Almloef) done
Projecting the Hessian                  .... done
Forming the augmented Hessian           .... done
Diagonalizing the augmented Hessian     .... done
Last element of RFO vector              ....  0.999786265
Lowest eigenvalues of augmented Hessian:
 -0.000006283  0.001680508  0.001680710  0.001681133  0.001681535
Length of the computed step             ....  0.020678667
The final length of the internal step   ....  0.020678667
Converting the step to cartesian space:
 Initial RMS(Int)=    0.0033545227
Transforming coordinates:
 Iter   0:  RMS(Cart)=    0.0056070996 RMS(Int)=    1.0181520708
 Iter   1:  RMS(Cart)=    0.0000275165 RMS(Int)=    0.0000195849
 Iter   2:  RMS(Cart)=    0.0000001096 RMS(Int)=    0.0000000593
 Iter   3:  RMS(Cart)=    0.0000000009 RMS(Int)=    0.0000000007
done
Storing new coordinates                 .... done

                                .--------------------.
          ----------------------|Geometry convergence|-------------------------
          Item                value                   Tolerance       Converged
          ---------------------------------------------------------------------
          RMS gradient        0.0001596063            0.0001000000      NO
          MAX gradient        0.0005218870            0.0003000000      NO
          RMS step            0.0033545227            0.0020000000      NO
          MAX step            0.0078414210            0.0040000000      NO
          ........................................................
          Max(Bonds)      0.0024      Max(Angles)    0.07
          Max(Dihed)        0.45      Max(Improp)    0.00
          ---------------------------------------------------------------------

The optimization has not yet converged - more geometry cycles are needed


    ---------------------------------------------------------------------------
                         Redundant Internal Coordinates
                            (Angstroem and degrees)

        Definition                    Value    dE/dq     Step     New-Value
    ----------------------------------------------------------------------------
     1. B(N   1,Pt  0)                2.0738  0.000161 -0.0014    2.0725   
     2. B(H   2,N   1)                1.0324  0.000222 -0.0003    1.0321   
     3. B(H   3,N   1)                1.0321 -0.000052  0.0001    1.0321   
     4. B(H   4,N   1)                1.0346 -0.000380  0.0005    1.0351   
     5. B(N   5,Pt  0)                2.0743  0.000282 -0.0024    2.0719   
     6. B(H   6,N   5)                1.0318 -0.000216  0.0003    1.0321   
     7. B(H   7,N   5)                1.0350  0.000033 -0.0000    1.0350   
     8. B(H   8,N   5)                1.0327  0.000522 -0.0007    1.0320   
     9. B(Cl  9,Pt  0)                2.3454  0.000226 -0.0020    2.3434   
    10. B(Cl 10,Pt  0)                2.3451  0.000204 -0.0018    2.3433   
    11. A(N   1,Pt  0,Cl  9)           85.81  0.000046   -0.01     85.80   
    12. A(N   1,Pt  0,N   5)           93.48  0.000261   -0.07     93.41   
    13. A(N   5,Pt  0,Cl 10)           85.80 -0.000074    0.02     85.82   
    14. A(Cl  9,Pt  0,Cl 10)           94.90 -0.000232    0.06     94.96   
    15. A(H   2,N   1,H   3)          107.27 -0.000078    0.00    107.28   
    16. A(H   3,N   1,H   4)          107.15 -0.000176    0.05    107.20   
    17. A(H   2,N   1,H   4)          107.25 -0.000081    0.02    107.27   
    18. A(Pt  0,N   1,H   3)          113.45  0.000146   -0.03    113.41   
    19. A(Pt  0,N   1,H   4)          107.83  0.000073   -0.01    107.83   
    20. A(Pt  0,N   1,H   2)          113.54  0.000089   -0.03    113.51   
    21. A(H   7,N   5,H   8)          107.29 -0.000073    0.02    107.30   
    22. A(H   6,N   5,H   8)          107.22 -0.000059    0.01    107.24   
    23. A(Pt  0,N   5,H   8)          113.41  0.000044   -0.01    113.40   
    24. A(H   6,N   5,H   7)          107.28 -0.000099    0.02    107.30   
    25. A(Pt  0,N   5,H   7)          107.93  0.000101   -0.02    107.91   
    26. A(Pt  0,N   5,H   6)          113.38  0.000070   -0.01    113.37   
    27. D(H   4,N   1,Pt  0,N   5)    179.92  0.000041   -0.45    179.48   
    28. D(H   3,N   1,Pt  0,Cl  9)    118.45 -0.000054   -0.01    118.43   
    29. D(H   2,N   1,Pt  0,N   5)     61.24  0.000039   -0.45     60.79   
    30. D(H   4,N   1,Pt  0,Cl  9)     -0.05  0.000029   -0.05     -0.10   
    31. D(H   3,N   1,Pt  0,N   5)    -61.58 -0.000042   -0.41    -61.99   
    32. D(H   2,N   1,Pt  0,Cl  9)   -118.73  0.000028   -0.06   -118.79   
    33. D(H   6,N   5,Pt  0,N   1)    -61.40 -0.000020    0.40    -61.00   
    34. D(H   8,N   5,Pt  0,Cl 10)   -118.71  0.000009   -0.23   -118.93   
    35. D(H   8,N   5,Pt  0,N   1)     61.20 -0.000009    0.40     61.59   
    36. D(H   7,N   5,Pt  0,Cl 10)      0.01  0.000012   -0.23     -0.22   
    37. D(H   7,N   5,Pt  0,N   1)    179.91 -0.000006    0.40    180.31   
    38. D(H   6,N   5,Pt  0,Cl 10)    118.70 -0.000001   -0.22    118.47   
    ----------------------------------------------------------------------------

         *************************************************************
         *                GEOMETRY OPTIMIZATION CYCLE   2            *
         *************************************************************
---------------------------------
CARTESIAN COORDINATES (ANGSTROEM)
---------------------------------
  Pt    -2.869841    0.143199    0.168374
  N     -0.890821    0.636566    0.536100
  H     -0.774458    1.545199    1.011507
  H     -0.308758    0.659615   -0.315924
  H     -0.493733   -0.088927    1.158471
  N     -3.191186    1.804907   -1.026699
  H     -3.051619    2.699119   -0.530584
  H     -4.175010    1.781014   -1.347202
  H     -2.594536    1.825872   -1.868471
  Cl    -2.480757   -1.717889    1.538179
  Cl    -5.116282   -0.377676   -0.247751

----------------------------
CARTESIAN COORDINATES (A.U.)
----------------------------
  NO LB      ZA    FRAG     MASS         X           Y           Z
   0 Pt   18.0000*   0   195.090   -5.423213    0.270608    0.318180
   1 N     7.0000    0    14.007   -1.683408    1.202936    1.013083
   2 H     1.0000    0     1.008   -1.463513    2.920003    1.911472
   3 H     1.0000    0     1.008   -0.583468    1.246492   -0.597011
   4 H     1.0000    0     1.008   -0.933020   -0.168048    2.189192
   5 N     7.0000    0    14.007   -6.030467    3.410780   -1.940180
   6 H     1.0000    0     1.008   -5.766724    5.100595   -1.002659
   7 H     1.0000    0     1.008   -7.889625    3.365629   -2.545842
   8 H     1.0000    0     1.008   -4.902963    3.450398   -3.530899
   9 Cl   17.0000    0    35.453   -4.687951   -3.246339    2.906738
  10 Cl   17.0000    0    35.453   -9.668371   -0.713704   -0.468182
* core charge reduced due to ECP

--------------------------------
INTERNAL COORDINATES (ANGSTROEM)
--------------------------------
 Pt     0   0   0     0.000000000000     0.00000000     0.00000000
 N      1   0   0     2.072474962080     0.00000000     0.00000000
 H      2   1   0     1.032068586042   113.51450324     0.00000000
 H      2   1   3     1.032121586423   113.41331668   237.22204880
 H      2   1   3     1.035067654770   107.82834251   118.68601571
 N      1   2   3     2.071891138777    93.41226979    60.79192677
 H      6   1   2     1.032096587760   113.36842027   299.00192336
 H      6   1   2     1.034988844023   107.91059634   180.30883432
 H      6   1   2     1.031993570802   113.39747533    61.59400575
 Cl     1   2   3     2.343374352501    85.80198622   241.20945616
 Cl     1   2   3     2.343281211506   179.07085020    26.21185786

---------------------------
INTERNAL COORDINATES (A.U.)
---------------------------
 Pt     0   0   0     0.000000000000     0.00000000     0.00000000
 N      1   0   0     3.916410097741     0.00000000     0.00000000
 H      2   1   0     1.950326979043   113.51450324     0.00000000
 H      2   1   3     1.950427135248   113.41331668   237.22204880
 H      2   1   3     1.955994397596   107.82834251   118.68601571
 N      1   2   3     3.915306831587    93.41226979    60.79192677
 H      6   1   2     1.950379894622   113.36842027   299.00192336
 H      6   1   2     1.955845466868   107.91059634   180.30883432
 H      6   1   2     1.950185220784   113.39747533    61.59400575
 Cl     1   2   3     4.428335755482    85.80198622   241.20945616
 Cl     1   2   3     4.428159744510   179.07085020    26.21185786



           ************************************************************
           *        Program running with 8 parallel MPI-processes     *
           *              working on a common directory               *
           ************************************************************
------------------------------------------------------------------------------
                   ___                                                        
                  /   \      - P O W E R E D   B Y -                         
                 /     \                                                     
                 |  |  |   _    _      __       _____    __    __             
                 |  |  |  | |  | |    /  \     |  _  \  |  |  /  |          
                  \  \/   | |  | |   /    \    | | | |  |  | /  /          
                 / \  \   | |__| |  /  /\  \   | |_| |  |  |/  /          
                |  |  |   |  __  | /  /__\  \  |    /   |      \           
                |  |  |   | |  | | |   __   |  |    \   |  |\   \          
                \     /   | |  | | |  |  |  |  | |\  \  |  | \   \       
                 \___/    |_|  |_| |__|  |__|  |_| \__\ |__|  \__/        
                                                                              
                      - O R C A' S   B I G   F R I E N D -                    
                                      &                                       
                       - I N T E G R A L  F E E D E R -                       
                                                                              
 v1 FN, 2020, v2 2021                                                         
------------------------------------------------------------------------------


Reading SHARK input file orca_opt.SHARKINP.tmp ... ok
----------------------
SHARK INTEGRAL PACKAGE
----------------------

Number of atoms                             ...     11
Number of basis functions                   ...    126
Number of shells                            ...     58
Maximum angular momentum                    ...      3
Integral batch strategy                     ... SHARK/LIBINT Hybrid
RI-J (if used) integral strategy            ... SPLIT-RIJ (Revised 2003 algorithm where possible)
Printlevel                                  ...      1
Contraction scheme used                     ... SEGMENTED contraction
Coulomb Range Separation                    ... NOT USED
Exchange Range Separation                   ... NOT USED
Finite Nucleus Model                        ... NOT USED
Auxiliary Coulomb fitting basis             ... AVAILABLE
   # of basis functions in Aux-J            ...    355
   # of shells in Aux-J                     ...    117
   Maximum angular momentum in Aux-J        ...      4
Auxiliary J/K fitting basis                 ... NOT available
Auxiliary Correlation fitting basis         ... NOT available
Auxiliary 'external' fitting basis          ... NOT available
Integral threshold                          ...     2.500000e-11
Primitive cut-off                           ...     2.500000e-12
Primitive pair pre-selection threshold      ...     2.500000e-12

Calculating pre-screening integrals         ... done (  0.0 sec) Dimension = 58
Organizing shell pair data                  ... done (  0.0 sec)
Shell pair information
Total number of shell pairs                 ...      1711
Shell pairs after pre-screening             ...      1588
Total number of primitive shell pairs       ...      6098
Primitive shell pairs kept                  ...      4229
          la=0 lb=0:    485 shell pairs
          la=1 lb=0:    558 shell pairs
          la=1 lb=1:    170 shell pairs
          la=2 lb=0:    184 shell pairs
          la=2 lb=1:    112 shell pairs
          la=2 lb=2:     21 shell pairs
          la=3 lb=0:     32 shell pairs
          la=3 lb=1:     19 shell pairs
          la=3 lb=2:      6 shell pairs
          la=3 lb=3:      1 shell pairs

Calculating one electron integrals          ... done (  0.0 sec)
Calculating ECP integrals                   ... done (  0.1 sec)
Calculating RI/J V-Matrix + Cholesky decomp.... done (  0.0 sec)
Calculating Nuclear repulsion               ... done (  0.0 sec) ENN=    406.352464309517 Eh

SHARK setup successfully completed in   0.2 seconds

Maximum memory used throughout the entire GTOINT-calculation: 14.5 MB


           ************************************************************
           *        Program running with 8 parallel MPI-processes     *
           *              working on a common directory               *
           ************************************************************

Diagonalization of the overlap matrix:
Smallest eigenvalue                        ... 7.475e-03
Time for diagonalization                   ...    0.001 sec
Threshold for overlap eigenvalues          ... 1.000e-08
Number of eigenvalues below threshold      ... 0
Time for construction of square roots      ...    0.002 sec
Total time needed                          ...    0.004 sec

-------------------
DFT GRID GENERATION
-------------------

General Integration Accuracy     IntAcc      ... 4.388
Radial Grid Type                 RadialGrid  ... OptM3 with GC (2021)
Angular Grid (max. ang.)         AngularGrid ... 4 (Lebedev-302)
Angular grid pruning method      GridPruning ... 4 (adaptive)
Weight generation scheme         WeightScheme... Becke
Basis function cutoff            BFCut       ... 1.0000e-11
Integration weight cutoff        WCut        ... 1.0000e-14
Angular grids for H and He will be reduced by one unit
Partially contracted basis set               ... off
Rotationally invariant grid construction     ... off

Total number of grid points                  ...    57606
Total number of batches                      ...      906
Average number of points per batch           ...       63
Average number of grid points per atom       ...     5237
Time for grid setup =    0.243 sec


--------------------
CPCM SOLVATION MODEL
--------------------
CPCM parameters:
  Epsilon                                         ...       9.0800
  Refrac                                          ...       1.4240
  Rsolv                                           ...       1.3000
  Surface type                                    ... GAUSSIAN VDW
  Epsilon function type                           ...         CPCM
Radii:
 Radius for Pt used is    3.9004 Bohr (=   2.0640 Ang.)
 Radius for N  used is    3.5149 Bohr (=   1.8600 Ang.)
 Radius for H  used is    2.4944 Bohr (=   1.3200 Ang.)
 Radius for Cl used is    3.9684 Bohr (=   2.1000 Ang.)
Calculating surface                               ...        done! (  0.0s)
GEPOL surface points                              ...          766
GEPOL Volume                                      ...     942.6671
GEPOL Surface-area                                ...     574.1628
Calculating surface distance matrix               ...        done! (  0.0s)
Performing Cholesky decomposition & store         ...        done! (  0.0s)
Overall time for CPCM initialization              ...                 0.0s
--------------
SCF ITERATIONS
--------------
ITER       Energy         Delta-E        Max-DP      RMS-DP      [F,P]     Damp
               ***  Starting incremental Fock matrix formation  ***
  0  -1152.9084365091   0.000000000000 0.00046765  0.00002443  0.0105581 0.7000
  1  -1152.9084448284  -0.000008319263 0.00050054  0.00002462  0.0073970 0.7000
                               ***Turning on DIIS***
  2  -1152.9084513240  -0.000006495646 0.00137998  0.00006785  0.0051789 0.0000
  3  -1152.9084667761  -0.000015452023 0.00035828  0.00001545  0.0001009 0.0000
  4  -1152.9084669188  -0.000000142732 0.00027298  0.00000698  0.0001136 0.0000
  5  -1152.9084669405  -0.000000021673 0.00017357  0.00000439  0.0001153 0.0000
  6  -1152.9084669892  -0.000000048686 0.00004539  0.00000119  0.0000318 0.0000
  7  -1152.9084669954  -0.000000006202 0.00000926  0.00000027  0.0000076 0.0000
                 **** Energy Check signals convergence ****

               *****************************************************
               *                     SUCCESS                       *
               *           SCF CONVERGED AFTER   8 CYCLES          *
               *****************************************************

Total Energy       :        -1152.90846699 Eh          -31372.23432 eV
  Last Energy change         ...    3.1184e-09  Tolerance :   1.0000e-08
  Last MAX-Density change    ...    4.3938e-06  Tolerance :   1.0000e-07
             **** THE GBW FILE WAS UPDATED (orca_opt.gbw) ****
             **** DENSITY orca_opt.scfp WAS UPDATED ****
             **** ENERGY FILE WAS UPDATED (orca_opt.en.tmp) ****
             **** THE GBW FILE WAS UPDATED (orca_opt.gbw) ****
             **** DENSITY orca_opt.scfp WAS UPDATED ****
Total SCF time: 0 days 0 hours 0 min 1 sec 

Maximum memory used throughout the entire SCF-calculation: 18.8 MB


-------------------------------------------------------------------------------
                          DFT DISPERSION CORRECTION                            
                                                                               
                              DFTD3 V3.1  Rev 1                                
                          USING Becke-Johnson damping                          
-------------------------------------------------------------------------------
-------------------------   ----------------
Dispersion correction           -0.021043880
-------------------------   ----------------


-------------------------   --------------------
FINAL SINGLE POINT ENERGY     -1152.929510872426
-------------------------   --------------------



           ************************************************************
           *        Program running with 8 parallel MPI-processes     *
           *              working on a common directory               *
           ************************************************************
------------------------------------------------------------------------------
                         ORCA SCF GRADIENT CALCULATION
------------------------------------------------------------------------------

Gradient of the Kohn-Sham DFT energy:
Kohn-Sham wavefunction type      ... RKS
Hartree-Fock exchange scaling    ...    0.000
Number of operators              ...    1
Number of atoms                  ...   11
Basis set dimensions             ...  126
Integral neglect threshold       ... 2.5e-11
Integral primitive cutoff        ... 2.5e-12
SHARK Integral package           ... ON

Nuc. rep. gradient       (SHARK) ... done (  0.0 sec)
HCore & Overlap gradient (SHARK) ... done (  0.0 sec)
ECP gradient             (SHARK) ... done (  0.2 sec)
RI-J gradient            (SHARK) ... done (  0.2 sec)
Exchange-correlation gradient    ... done
Dispersion correction            ... done

------------------
CARTESIAN GRADIENT
------------------

   1   Pt  :    0.000354896   -0.000633542   -0.001138235
   2   N   :   -0.000543721    0.000218234    0.000314445
   3   H   :    0.000126947   -0.000029825    0.000016754
   4   H   :   -0.000016612   -0.000032646   -0.000001798
   5   H   :    0.000046557    0.000000981   -0.000032380
   6   N   :   -0.000035833   -0.000193610    0.000512118
   7   H   :   -0.000018483    0.000046596   -0.000047784
   8   H   :    0.000038707   -0.000002653   -0.000007311
   9   H   :   -0.000019174   -0.000030811    0.000056218
  10   Cl  :   -0.000102173    0.000383866   -0.000016775
  11   Cl  :    0.000168889    0.000273410    0.000344749

Difference to translation invariance:
           :    0.0000000000    0.0000000000   -0.0000000000

Difference to rotation invariance:
           :    0.0001867452    0.0002326641   -0.0000847909

Norm of the cartesian gradient     ...    0.0017259653
RMS gradient                       ...    0.0003004520
MAX gradient                       ...    0.0011382353

-------
TIMINGS
-------

Total SCF gradient time            ...        0.920 sec

One electron gradient       ....       0.234 sec  ( 25.5%)
RI-J Coulomb gradient       ....       0.174 sec  ( 18.9%)
XC gradient                 ....       0.192 sec  ( 20.9%)
CPCM gradient               ....       0.062 sec  (  6.7%)
   A-Matrix (El+Nuc)        ....       0.018 sec  (  1.9%)
   Potential                ....       0.044 sec  (  4.8%)

Maximum memory used throughout the entire SCFGRAD-calculation: 27.7 MB
------------------------------------------------------------------------------
                         ORCA GEOMETRY RELAXATION STEP
------------------------------------------------------------------------------

Reading the OPT-File                    .... done
Getting information on internals        .... done
Copying old internal coords+grads       .... done
Making the new internal coordinates     .... (new redundants).... done
Validating the new internal coordinates .... (new redundants).... done
Calculating the B-matrix                .... done
Calculating the G,G- and P matrices     .... done
Transforming gradient to internals      .... done
Projecting the internal gradient        .... done
Number of atoms                         ....  11
Number of internal coordinates          ....  38
Current Energy                          .... -1152.929510872 Eh
Current gradient norm                   ....     0.001725965 Eh/bohr
Maximum allowed component of the step   ....  0.300
Current trust radius                    ....  0.300
Updating the Hessian (BFGS)             .... done
Forming the augmented Hessian           .... done
Diagonalizing the augmented Hessian     .... done
Last element of RFO vector              ....  0.994643895
Lowest eigenvalues of augmented Hessian:
 -0.000063865  0.001314243  0.001680578  0.001681015  0.008793344
[...]
E(C)               :       -3.060577379920 Eh       
E(XC)              :      -84.461697206324 Eh       
DFET-embed. en.    :        0.000000000000 Eh       
CPCM Solvation Model Properties:
Surface-charge          :           -0.01863488
Charge-correction       :            0.00016795 Eh               0.00457 eV
Free-energy (cav+disp)  :  This term is not implemented in the current solvation scheme

---------------
SCF CONVERGENCE
---------------

  Last Energy change         ...    6.6893e-10  Tolerance :   1.0000e-08
  Last MAX-Density change    ...    1.1478e-06  Tolerance :   1.0000e-07
  Last RMS-Density change    ...    2.8790e-08  Tolerance :   5.0000e-09
  Last DIIS Error            ...    6.6516e-07  Tolerance :   5.0000e-07

             **** THE GBW FILE WAS UPDATED (orca_opt.gbw) ****
             **** DENSITY orca_opt.scfp WAS UPDATED ****
             **** ENERGY FILE WAS UPDATED (orca_opt.en.tmp) ****
             **** THE GBW FILE WAS UPDATED (orca_opt.gbw) ****
             **** DENSITY orca_opt.scfp WAS UPDATED ****
----------------
ORBITAL ENERGIES
----------------

  NO   OCC          E(Eh)            E(eV) 
   0   2.0000    -100.645778     -2738.7109 
   1   2.0000    -100.645747     -2738.7100 
   2   2.0000     -14.076823      -383.0498 
   3   2.0000     -14.076740      -383.0476 
   4   2.0000      -9.127777      -248.3794 
   5   2.0000      -9.127758      -248.3789 
   6   2.0000      -6.955872      -189.2789 
   7   2.0000      -6.955859      -189.2785 
   8   2.0000      -6.949063      -189.0936 
   9   2.0000      -6.949042      -189.0930 
  10   2.0000      -6.949022      -189.0925 
  11   2.0000      -6.948998      -189.0918 
  12   2.0000      -3.785744      -103.0153 
  13   2.0000      -2.079573       -56.5881 
  14   2.0000      -2.076563       -56.5062 
  15   2.0000      -2.036122       -55.4057 
  16   2.0000      -0.830142       -22.5893 
  17   2.0000      -0.824584       -22.4381 
  18   2.0000      -0.685155       -18.6440 
  19   2.0000      -0.678883       -18.4734 
  20   2.0000      -0.477787       -13.0012 
  21   2.0000      -0.471887       -12.8407 
  22   2.0000      -0.466183       -12.6855 
  23   2.0000      -0.461508       -12.5583 
  24   2.0000      -0.398096       -10.8327 
  25   2.0000      -0.394654       -10.7391 
  26   2.0000      -0.293216        -7.9788 
  27   2.0000      -0.290532        -7.9058 
  28   2.0000      -0.278675        -7.5831 
  29   2.0000      -0.267903        -7.2900 
  30   2.0000      -0.264873        -7.2076 
  31   2.0000      -0.228477        -6.2172 
  32   2.0000      -0.207281        -5.6404 
  33   2.0000      -0.202986        -5.5235 
  34   2.0000      -0.197044        -5.3618 
  35   2.0000      -0.192100        -5.2273 
  36   0.0000      -0.075623        -2.0578 
  37   0.0000       0.000162         0.0044 
  38   0.0000       0.017101         0.4653 
  39   0.0000       0.042849         1.1660 
  40   0.0000       0.061246         1.6666 
  41   0.0000       0.085635         2.3302 
  42   0.0000       0.091849         2.4993 
  43   0.0000       0.108615         2.9556 
  44   0.0000       0.119405         3.2492 
  45   0.0000       0.131118         3.5679 
  46   0.0000       0.146049         3.9742 
  47   0.0000       0.175658         4.7799 
  48   0.0000       0.317957         8.6520 
  49   0.0000       0.344535         9.3753 
  50   0.0000       0.348406         9.4806 
  51   0.0000       0.436356        11.8739 
  52   0.0000       0.497742        13.5442 
  53   0.0000       0.499136        13.5822 
  54   0.0000       0.503787        13.7088 
  55   0.0000       0.521852        14.2003 
  56   0.0000       0.538376        14.6500 
  57   0.0000       0.549704        14.9582 
  58   0.0000       0.554015        15.0755 
  59   0.0000       0.574969        15.6457 
  60   0.0000       0.619198        16.8492 
  61   0.0000       0.620679        16.8895 
  62   0.0000       0.668737        18.1973 
  63   0.0000       0.686029        18.6678 
  64   0.0000       0.721387        19.6300 
  65   0.0000       0.739039        20.1103 
  66   0.0000       0.752457        20.4754 
  67   0.0000       0.766295        20.8519 
  68   0.0000       0.771236        20.9864 
  69   0.0000       0.780043        21.2261 
  70   0.0000       0.786204        21.3937 
  71   0.0000       0.792931        21.5768 
  72   0.0000       0.809528        22.0284 
  73   0.0000       0.816264        22.2117 
  74   0.0000       0.825440        22.4614 
  75   0.0000       0.830133        22.5891 
  76   0.0000       0.838599        22.8194 
  77   0.0000       0.851499        23.1705 
  78   0.0000       0.855054        23.2672 
  79   0.0000       0.917637        24.9702 
  80   0.0000       0.955231        25.9932 
  81   0.0000       0.956818        26.0363 
  82   0.0000       0.959536        26.1103 
  83   0.0000       1.066758        29.0280 
  84   0.0000       1.115446        30.3528 
  85   0.0000       1.150653        31.3109 
  86   0.0000       1.193483        32.4763 
  87   0.0000       1.229414        33.4541 
  88   0.0000       1.279057        34.8049 
  89   0.0000       1.280701        34.8496 
  90   0.0000       1.326446        36.0944 
  91   0.0000       1.330230        36.1974 
  92   0.0000       1.382164        37.6106 
  93   0.0000       1.418630        38.6029 
  94   0.0000       1.421004        38.6675 
  95   0.0000       1.438472        39.1428 
  96   0.0000       1.438794        39.1516 
  97   0.0000       1.484633        40.3989 
  98   0.0000       1.484795        40.4033 
  99   0.0000       1.517169        41.2843 
 100   0.0000       1.522018        41.4162 
 101   0.0000       1.813329        49.3432 
 102   0.0000       1.828741        49.7626 
 103   0.0000       1.869353        50.8677 
 104   0.0000       1.894533        51.5529 
 105   0.0000       1.961112        53.3646 
 106   0.0000       1.966523        53.5118 
 107   0.0000       1.972279        53.6684 
 108   0.0000       1.974625        53.7323 
 109   0.0000       2.064069        56.1662 
 110   0.0000       2.118746        57.6540 
 111   0.0000       2.316924        63.0467 
 112   0.0000       2.335735        63.5586 
 113   0.0000       2.395021        65.1718 
 114   0.0000       2.634441        71.6868 
 115   0.0000       2.636918        71.7542 
 116   0.0000       2.638258        71.7907 
 117   0.0000       2.659349        72.3646 
 118   0.0000       2.789843        75.9155 
 119   0.0000       2.798433        76.1492 
 120   0.0000       3.158213        85.9393 
 121   0.0000       3.163300        86.0778 
 122   0.0000       3.207530        87.2813 
 123   0.0000       3.244264        88.2809 
 124   0.0000      51.083021      1390.0397 
 125   0.0000     282.884581      7697.6808 

                    ********************************
                    * MULLIKEN POPULATION ANALYSIS *
                    ********************************

-----------------------
MULLIKEN ATOMIC CHARGES
-----------------------
   0 Pt:   -0.155142
   1 N :   -0.150937
   2 H :    0.202919
   3 H :    0.202991
   4 H :    0.175369
   5 N :   -0.150976
   6 H :    0.203065
   7 H :    0.175426
   8 H :    0.203006
   9 Cl:   -0.352825
  10 Cl:   -0.352896
Sum of atomic charges:   -0.0000000

--------------------------------
MULLIKEN REDUCED ORBITAL CHARGES
--------------------------------
  0 Pts       :     2.859285  s :     2.859285
      pz      :     2.141466  p :     6.433311
      px      :     2.138508
      py      :     2.153337
      dz2     :     1.895433  d :     8.838209
      dxz     :     1.972664
      dyz     :     1.643619
      dx2y2   :     1.449259
      dxy     :     1.877234
      f0      :     0.002284  f :     0.024337
      f+1     :     0.002522
      f-1     :     0.002422
      f+2     :     0.005692
      f-2     :     0.002160
      f+3     :     0.004698
      f-3     :     0.004559
  1 N s       :     3.376676  s :     3.376676
      pz      :     1.180902  p :     3.759108
      px      :     1.398390
      py      :     1.179816
      dz2     :     0.000837  d :     0.015153
      dxz     :     0.005394
      dyz     :     0.003344
      dx2y2   :     0.002627
      dxy     :     0.002950
  2 H s       :     0.755057  s :     0.755057
      pz      :     0.012100  p :     0.042024
      px      :     0.008874
      py      :     0.021050
  3 H s       :     0.754970  s :     0.754970
      pz      :     0.020731  p :     0.042038
      px      :     0.012386
      py      :     0.008921
  4 H s       :     0.781562  s :     0.781562
      pz      :     0.014608  p :     0.043069
      px      :     0.009818
      py      :     0.018644
  5 N s       :     3.376573  s :     3.376573
      pz      :     1.253469  p :     3.759249
      px      :     1.186354
      py      :     1.319426
      dz2     :     0.002985  d :     0.015154
      dxz     :     0.004065
      dyz     :     0.002184
      dx2y2   :     0.004788
      dxy     :     0.001133
  6 H s       :     0.754905  s :     0.754905
      pz      :     0.013674  p :     0.042030
      px      :     0.009289
      py      :     0.019068
  7 H s       :     0.781520  s :     0.781520
      pz      :     0.009510  p :     0.043054
      px      :     0.024425
      py      :     0.009119
  8 H s       :     0.754954  s :     0.754954
      pz      :     0.018278  p :     0.042040
      px      :     0.014795
      py      :     0.008967
  9 Cls       :     5.935082  s :     5.935082
      pz      :     3.797649  p :    11.400377
      px      :     3.897637
      py      :     3.705090
      dz2     :     0.003629  d :     0.017367
      dxz     :     0.001914
      dyz     :     0.005127
      dx2y2   :     0.003578
      dxy     :     0.003119
 10 Cls       :     5.935090  s :     5.935090
      pz      :     3.900520  p :    11.400426
      px      :     3.598769
      py      :     3.901138
      dz2     :     0.002098  d :     0.017379
      dxz     :     0.004804
      dyz     :     0.000726
      dx2y2   :     0.004757
      dxy     :     0.004993


                     *******************************
                     * LOEWDIN POPULATION ANALYSIS *
                     *******************************

----------------------
LOEWDIN ATOMIC CHARGES
----------------------
   0 Pt:   -0.790050
   1 N :    0.122513
   2 H :    0.129124
   3 H :    0.129172
   4 H :    0.110024
   5 N :    0.122589
   6 H :    0.129206
   7 H :    0.110039
   8 H :    0.129136
   9 Cl:   -0.095924
  10 Cl:   -0.095828

-------------------------------
LOEWDIN REDUCED ORBITAL CHARGES
-------------------------------
  0 Pts       :     2.768776  s :     2.768776
      pz      :     2.206349  p :     6.728785
      px      :     2.271706
      py      :     2.250731
      dz2     :     1.950678  d :     9.250061
      dxz     :     2.026904
      dyz     :     1.744671
      dx2y2   :     1.579639
      dxy     :     1.948169
      f0      :     0.003965  f :     0.042428
      f+1     :     0.004577
      f-1     :     0.003893
      f+2     :     0.010317
      f-2     :     0.003417
      f+3     :     0.008335
      f-3     :     0.007924
  1 N s       :     3.059088  s :     3.059088
      pz      :     1.196177  p :     3.780439
      px      :     1.386854
      py      :     1.197408
      dz2     :     0.002992  d :     0.037960
      dxz     :     0.012043
      dyz     :     0.009664
      dx2y2   :     0.007387
      dxy     :     0.005874
  2 H s       :     0.758375  s :     0.758375
      pz      :     0.028893  p :     0.112502
      px      :     0.027201
      py      :     0.056408
  3 H s       :     0.758321  s :     0.758321
      pz      :     0.052883  p :     0.112507
      px      :     0.041114
      py      :     0.018511
  4 H s       :     0.773563  s :     0.773563
      pz      :     0.037139  p :     0.116413
      px      :     0.033194
      py      :     0.046081
  5 N s       :     3.058989  s :     3.058989
      pz      :     1.259491  p :     3.780455
      px      :     1.201809
      py      :     1.319155
      dz2     :     0.006347  d :     0.037967
      dxz     :     0.010544
      dyz     :     0.006448
      dx2y2   :     0.012615
      dxy     :     0.002013
  6 H s       :     0.758281  s :     0.758281
      pz      :     0.033390  p :     0.112513
      px      :     0.019602
      py      :     0.059522
  7 H s       :     0.773568  s :     0.773568
      pz      :     0.025254  p :     0.116393
      px      :     0.067115
      py      :     0.024024
  8 H s       :     0.758331  s :     0.758331
      pz      :     0.053167  p :     0.112533
      px      :     0.035521
      py      :     0.023846
  9 Cls       :     5.759963  s :     5.759963
      pz      :     3.769499  p :    11.316742
      px      :     3.865824
      py      :     3.681419
      dz2     :     0.003935  d :     0.019219
      dxz     :     0.002162
      dyz     :     0.005656
      dx2y2   :     0.004092
      dxy     :     0.003374
 10 Cls       :     5.759899  s :     5.759899
      pz      :     3.865175  p :    11.316695
      px      :     3.587698
      py      :     3.863822
      dz2     :     0.002315  d :     0.019235
      dxz     :     0.005300
      dyz     :     0.000751
      dx2y2   :     0.005205
      dxy     :     0.005664


                      *****************************
                      * MAYER POPULATION ANALYSIS *
                      *****************************

  NA   - Mulliken gross atomic population
  ZA   - Total nuclear charge
  QA   - Mulliken gross atomic charge
  VA   - Mayer's total valence
  BVA  - Mayer's bonded valence
  FA   - Mayer's free valence

  ATOM       NA         ZA         QA         VA         BVA        FA
  0 Pt    18.1551    18.0000    -0.1551     3.0542     3.0542    -0.0000
  1 N      7.1509     7.0000    -0.1509     3.5191     3.5191    -0.0000
  2 H      0.7971     1.0000     0.2029     0.9460     0.9460    -0.0000
  3 H      0.7970     1.0000     0.2030     0.9459     0.9459    -0.0000
  4 H      0.8246     1.0000     0.1754     0.9978     0.9978    -0.0000
  5 N      7.1510     7.0000    -0.1510     3.5192     3.5192    -0.0000
  6 H      0.7969     1.0000     0.2031     0.9459     0.9459    -0.0000
  7 H      0.8246     1.0000     0.1754     0.9977     0.9977    -0.0000
  8 H      0.7970     1.0000     0.2030     0.9459     0.9459     0.0000
  9 Cl    17.3528    17.0000    -0.3528     1.0916     1.0916    -0.0000
 10 Cl    17.3529    17.0000    -0.3529     1.0915     1.0915    -0.0000

  Mayer bond orders larger than 0.100000
B(  0-Pt,  1-N ) :   0.6052 B(  0-Pt,  5-N ) :   0.6053 B(  0-Pt,  9-Cl) :   0.9025 
B(  0-Pt, 10-Cl) :   0.9026 B(  1-N ,  2-H ) :   0.9362 B(  1-N ,  3-H ) :   0.9362 
B(  1-N ,  4-H ) :   0.9184 B(  1-N , 10-Cl) :   0.1128 B(  5-N ,  6-H ) :   0.9362 
B(  5-N ,  7-H ) :   0.9184 B(  5-N ,  8-H ) :   0.9362 B(  5-N ,  9-Cl) :   0.1129 


-------
TIMINGS
-------

Total SCF time: 0 days 0 hours 0 min 1 sec 

Total time                  ....       1.396 sec
Sum of individual times     ....       1.294 sec  ( 92.7%)

Fock matrix formation       ....       0.995 sec  ( 71.2%)
  Split-RI-J                ....       0.135 sec  ( 13.6% of F)
  XC integration            ....       0.320 sec  ( 32.2% of F)
    Basis function eval.    ....       0.093 sec  ( 29.1% of XC)
    Density eval.           ....       0.068 sec  ( 21.1% of XC)
    XC-Functional eval.     ....       0.021 sec  (  6.7% of XC)
    XC-Potential eval.      ....       0.034 sec  ( 10.6% of XC)
Diagonalization             ....       0.019 sec  (  1.4%)
Density matrix formation    ....       0.001 sec  (  0.1%)
Population analysis         ....       0.009 sec  (  0.7%)
Initial guess               ....       0.004 sec  (  0.3%)
Orbital Transformation      ....       0.000 sec  (  0.0%)
Orbital Orthonormalization  ....       0.003 sec  (  0.2%)
DIIS solution               ....       0.017 sec  (  1.2%)
Grid generation             ....       0.248 sec  ( 17.8%)

Maximum memory used throughout the entire SCF-calculation: 18.8 MB


-------------------------------------------------------------------------------
                          DFT DISPERSION CORRECTION                            
                                                                               
                              DFTD3 V3.1  Rev 1                                
                          USING Becke-Johnson damping                          
-------------------------------------------------------------------------------
The BP86 functional is recognized
Active option DFTDOPT                   ...         4   

molecular C6(AA) [au] = 3120.705598 


            DFT-D V3
 parameters
 s6 scaling factor         :     1.0000 
 a1 scaling factor         :     0.3946 
 s8 scaling factor         :     3.2822 
 a2 scaling factor         :     4.8516 
 ad hoc parameters k1-k3   :    16.0000     1.3333    -4.0000 

 Edisp/kcal,au: -13.199965877956  -0.021035482356 
 E6   /kcal   :  -4.073154582 
 E8   /kcal   :  -9.126811296 
 % E8         :  69.142688551 

-------------------------   ----------------
Dispersion correction           -0.021035482
-------------------------   ----------------


-------------------------   --------------------
FINAL SINGLE POINT ENERGY     -1152.929524315689
-------------------------   --------------------

                                *** OPTIMIZATION RUN DONE ***

                            ***************************************
                            *     ORCA property calculations      *
                            ***************************************

                                    ---------------------
                                    Active property flags
                                    ---------------------
   (+) Dipole Moment


------------------------------------------------------------------------------
                       ORCA ELECTRIC PROPERTIES CALCULATION
------------------------------------------------------------------------------

Dipole Moment Calculation                       ... on
Quadrupole Moment Calculation                   ... off
Polarizability Calculation                      ... off
GBWName                                         ... orca_opt.gbw
Electron density                                ... orca_opt.scfp
The origin for moment calculation is the CENTER OF MASS  = (-5.657616, -0.019248  0.447556)

-------------
DIPOLE MOMENT
-------------
                                X             Y             Z
Electronic contribution:     13.26976      17.19250      -6.69769
Nuclear contribution   :     -9.92358     -12.86888       5.00742
                        -----------------------------------------
Total Dipole Moment    :      3.34618       4.32361      -1.69027
                        -----------------------------------------
Magnitude (a.u.)       :      5.72255
Magnitude (Debye)      :     14.54556



--------------------
Rotational spectrum 
--------------------
 
Rotational constants in cm-1:     0.069421     0.056364     0.031430 
Rotational constants in MHz :  2081.196136  1689.742509   942.261550 

 Dipole components along the rotational axes: 
x,y,z [a.u.] :    -0.000410     5.722546    -0.001439 
x,y,z [Debye]:    -0.001043    14.545557    -0.003658 

 

Timings for individual modules:

Sum of individual times         ...       30.407 sec (=   0.507 min)
GTO integral calculation        ...        2.761 sec (=   0.046 min)   9.1 %
SCF iterations                  ...       18.771 sec (=   0.313 min)  61.7 %
SCF Gradient evaluation         ...        8.765 sec (=   0.146 min)  28.8 %
Geometry relaxation             ...        0.110 sec (=   0.002 min)   0.4 %
                             ****ORCA TERMINATED NORMALLY****
TOTAL RUN TIME: 0 days 0 hours 0 minutes 31 seconds 650 msec
