[Molden Format]
[Title]
 Molden file created by orca_2mkl for BaseName=orca_opt

[Atoms] AU
Pt   1  78         -5.4278754669         0.2781931618         0.3315720041 
N    2   7         -1.6816664864         1.2026658437         1.0135939690 
H    3   1         -1.4555902987         2.9202784558         1.9093600174 
H    4   1         -0.5891101377         1.2425511202        -0.6015406725 
H    5   1         -0.9306722947        -0.1693122286         2.1880169424 
N    6   7         -6.0318295861         3.4140064808        -1.9385694932 
H    7   1         -5.7701269852         5.1061056906        -1.0047197713 
H    8   1         -7.8898337115         3.3662483776        -2.5475810903 
H    9   1         -4.9007453655         3.4488253861        -3.5269050561 
Cl  10  17         -4.6883565397        -3.2484347959         2.9096079260 
Cl  11  17         -9.6669171244        -0.7217779128        -0.4789417233 
[GTO]
  1 0
s   2 1.0 
       16.5595630000        -8.2111709246
       13.8924400000        12.2265939393
s   1 1.0 
        5.8531044732         2.6819445795
s   1 1.0 
        1.2498640609         0.8424753011
s   1 1.0 
        0.5560643946         0.4589378830
s   1 1.0 
        0.1379309381         0.1613081683
s   1 1.0 
        0.0489890341         0.0742137283
p   4 1.0 
        8.1000000000        15.3722926767
        7.2000000000       -17.3571319056
        1.5588402917         1.5346865251
        0.7323040218         0.5171486561
p   1 1.0 
        0.3027048467         0.3200474020
p   1 1.0 
        0.0500000000         0.0337017609
d   4 1.0 
        4.6299536825        -4.0045426569
        2.1980241252         2.6209846974
        0.9362999126         1.2947053721
        0.3716002816         0.2270955538
d   1 1.0 
        0.1315592862         0.0819280698
f   1 1.0 
        0.6681300000         2.3011094061

  2 0
s   5 1.0 
     1712.8415853000        -1.0337585405
      257.6481267700        -1.8620740805
       58.4582458530        -2.7290401880
       16.1983679050        -2.6956734544
        5.0052600809        -1.0640914367
s   1 1.0 
        0.5873185657         0.4781513534
s   1 1.0 
        0.1876459225         0.2031956662
p   3 1.0 
       13.5714702330        -2.1850243557
        2.9257372874        -1.7466999024
        0.7992775075        -0.8114650516
p   1 1.0 
        0.2195434803         0.2142105067
d   1 1.0 
        1.0000000000         2.8508218814

  3 0
s   3 1.0 
       13.0107010000         0.1634903809
        1.9622572000         0.2773515510
        0.4445379600         0.3157501452
s   1 1.0 
        0.1219496200         0.1470772262
p   1 1.0 
        0.8000000000         1.0784563492

  4 0
s   3 1.0 
       13.0107010000         0.1634903809
        1.9622572000         0.2773515510
        0.4445379600         0.3157501452
s   1 1.0 
        0.1219496200         0.1470772262
p   1 1.0 
        0.8000000000         1.0784563492

  5 0
s   3 1.0 
       13.0107010000         0.1634903809
        1.9622572000         0.2773515510
        0.4445379600         0.3157501452
s   1 1.0 
        0.1219496200         0.1470772262
p   1 1.0 
        0.8000000000         1.0784563492

  6 0
s   5 1.0 
     1712.8415853000        -1.0337585405
      257.6481267700        -1.8620740805
       58.4582458530        -2.7290401880
       16.1983679050        -2.6956734544
        5.0052600809        -1.0640914367
s   1 1.0 
        0.5873185657         0.4781513534
s   1 1.0 
        0.1876459225         0.2031956662
p   3 1.0 
       13.5714702330        -2.1850243557
        2.9257372874        -1.7466999024
        0.7992775075        -0.8114650516
p   1 1.0 
        0.2195434803         0.2142105067
d   1 1.0 
        1.0000000000         2.8508218814

  7 0
s   3 1.0 
       13.0107010000         0.1634903809
        1.9622572000         0.2773515510
        0.4445379600         0.3157501452
s   1 1.0 
        0.1219496200         0.1470772262
p   1 1.0 
        0.8000000000         1.0784563492

  8 0
s   3 1.0 
       13.0107010000         0.1634903809
        1.9622572000         0.2773515510
        0.4445379600         0.3157501452
s   1 1.0 
        0.1219496200         0.1470772262
p   1 1.0 
        0.8000000000         1.0784563492

  9 0
s   3 1.0 
       13.0107010000         0.1634903809
        1.9622572000         0.2773515510
        0.4445379600         0.3157501452
s   1 1.0 
        0.1219496200         0.1470772262
p   1 1.0 
        0.8000000000         1.0784563492

 10 0
s   5 1.0 
    10449.8275660000         3.9973241313
     1571.7365221000         7.2277480961
      357.1206552300        10.7494942607
      100.2518593500        10.7118498358
       30.8127275540         4.0765111022
s   3 1.0 
       51.9237894340        -1.2786987774
        5.7045760975         1.4832318965
        2.3508376809         0.6815120566
s   1 1.0 
        0.4460512467         0.3889991572
s   1 1.0 
        0.1684885619         0.1874294841
p   5 1.0 
      307.6679056900       -16.3095226390
       72.1020155150       -19.2520828188
       22.5326802620       -16.9965641132
        7.8991765444        -9.1249716393
        2.8767268321        -2.0801728153
p   1 1.0 
        0.7745936396         1.0358157160
p   1 1.0 
        0.2103769970         0.2030897020
d   1 1.0 
        0.6500000000         1.3414313681

 11 0
s   5 1.0 
    10449.8275660000         3.9973241313
     1571.7365221000         7.2277480961
      357.1206552300        10.7494942607
      100.2518593500        10.7118498358
       30.8127275540         4.0765111022
s   3 1.0 
       51.9237894340        -1.2786987774
        5.7045760975         1.4832318965
        2.3508376809         0.6815120566
s   1 1.0 
        0.4460512467         0.3889991572
s   1 1.0 
        0.1684885619         0.1874294841
p   5 1.0 
      307.6679056900       -16.3095226390
       72.1020155150       -19.2520828188
       22.5326802620       -16.9965641132
        7.8991765444        -9.1249716393
        2.8767268321        -2.0801728153
p   1 1.0 
        0.7745936396         1.0358157160
p   1 1.0 
        0.2103769970         0.2030897020
d   1 1.0 
        0.6500000000         1.3414313681

[5D]
[7F]
[9G]
[MO]
 Sym=     1a
 Ene= -1.00645778101449E+02
 Spin= Alpha
 Occup= 2.000000
  1       0.000141763005
  2      -0.000296167684
  3       0.000933775119
  4      -0.001933508024
  5       0.001889846220
  6       0.003506911166
  7       0.000054318721
  8       0.000102193990
  9      -0.000048592129
 10      -0.000162869772
 11      -0.000309050327
 12       0.000147345986
 13      -0.000724266236
 14      -0.001819055047
 15       0.000945696478
 16       0.000019292028
 17      -0.000007830929
 18       0.000026622384
 19      -0.000003869548
 20      -0.000018245166
 21      -0.000643447127
 22       0.000769256678
 23      -0.001747681861
 24      -0.000163399771
 25       0.000076217586
 26      -0.000022805045
 27       0.000029991237
 28      -0.000015163794
 29      -0.000058760132
 30      -0.000024475325
 31       0.000032792364
 32       0.000004495238
 33       0.000000997526
 34       0.000170962380
 35      -0.001163119995
 36      -0.000008096445
 37      -0.000017622477
 38       0.000008644456
 39       0.000303432277
 40       0.000140130501
 41       0.000007610799
 42       0.000011958352
 43       0.000011087132
 44       0.000017092389
 45       0.000012272551
 46      -0.000025522217
 47       0.000097566487
 48       0.000073306520
 49      -0.000028142543
 50      -0.000010414553
 51      -0.000030140312
 52       0.000095995203
 53       0.000066630089
 54      -0.000039592831
 55       0.000014071106
 56       0.000003489625
 57       0.000034069749
 58       0.000051511267
 59      -0.000083540746
 60      -0.000011983044
 61      -0.000021126037
 62       0.000008657780
 63       0.000291157007
 64      -0.002041441923
 65      -0.000011747706
 66       0.000004862786
 67      -0.000007139438
 68      -0.000049670674
 69       0.000473519474
 70      -0.000326471249
 71       0.000008053031
 72       0.000005401947
 73       0.000017148141
 74       0.000010416865
 75      -0.000014911044
 76       0.000102406253
 77       0.000275241807
 78       0.000012161121
 79      -0.000056004702
 80       0.000001801700
 81       0.000064229184
 82       0.000251847453
 83       0.000037084984
 84      -0.000042895225
 85       0.000040651061
 86       0.000103152784
 87       0.000276095197
 88      -0.000005461713
 89      -0.000022817120
 90       0.000052547844
 91      -0.851810739618
 92      -0.019237716459
 93       0.010030648797
 94      -0.008839207679
 95      -0.000025338243
 96       0.000090130783
 97      -0.000068144989
 98      -0.000133710319
 99       0.000408552417
100      -0.000315397359
101       0.000472777541
102      -0.001529473248
103       0.001171032681
104       0.000009639769
105      -0.000060154919
106       0.000219859492
107       0.000120588473
108       0.000058892478
109      -0.512363613281
110      -0.011587575395
111       0.006158767127
112      -0.005448158537
113       0.000067536366
114       0.000005989793
115       0.000019466748
116       0.000319514424
117       0.000012550989
118       0.000102494017
119      -0.001143290224
120      -0.000073407267
121      -0.000348030720
122       0.000081232486
123      -0.000068366116
124       0.000029643229
125      -0.000111564932
126      -0.000051816488
 Sym=     1a
 Ene= -1.00645747410898E+02
 Spin= Alpha
 Occup= 2.000000
  1       0.000035296387
  2      -0.000073738268
  3       0.000232449886
  4      -0.000481299698
  5       0.000470637489
  6       0.000872854085
  7       0.000089219209
  8      -0.000012701444
  9       0.000039938290
 10      -0.000274524517
 11       0.000040889451
 12      -0.000123749531
 13      -0.002271136923
 14       0.000608594995
 15      -0.001186238865
 16       0.000003107494
 17      -0.000001714708
 18       0.000009789452
 19       0.000003968425
 20      -0.000002404555
 21      -0.001006851492
 22       0.000441072013
 23       0.001181172584
 24       0.002315107980
 25       0.001136488833
 26       0.000041008599
 27       0.000024533769
 28       0.000022648390
 29      -0.000007796398
 30       0.000019197303
 31       0.000027790444
 32       0.000030329880
 33       0.000016591759
 34       0.000298892851
 35      -0.002162253426
 36       0.000037556727
 37       0.000019356447
 38      -0.000000043973
 39       0.000595861369
 40       0.000097081539
 41       0.000140860254
 42       0.000005942093
 43      -0.000013040652
 44      -0.000016383527
 45      -0.000030177048
 46       0.000002255255
 47       0.000036403351
 48       0.000453287986
 49      -0.000025448632
 50      -0.000048715592
 51      -0.000008923519
 52       0.000035871349
 53       0.000456850338
 54      -0.000040198302
 55      -0.000021141455
 56       0.000033374745
 57       0.000073885833
 58       0.000442508955
 59       0.000021339302
 60       0.000040402092
 61      -0.000018835589
 62      -0.000014205981
 63      -0.000183959400
 64       0.001364762350
 65      -0.000012243589
 66      -0.000038105526
 67       0.000020648345
 68       0.000145716358
 69      -0.000290248010
 70       0.000239167914
 71       0.000016999461
 72       0.000011868975
 73      -0.000009509829
 74      -0.000014381125
 75      -0.000035883680
 76       0.000014072134
 77      -0.000367730792
 78       0.000026099730
 79       0.000029998524
 80       0.000005456573
 81      -0.000049436500
 82      -0.000368267141
 83      -0.000020234164
 84      -0.000059702421
 85       0.000032348373
 86       0.000013034350
 87      -0.000368790798
 88       0.000033743409
 89       0.000016515269
 90      -0.000015512115
 91       0.512368942520
 92       0.011537251638
 93      -0.005766222261
 94       0.005037243496
 95      -0.000000929743
 96      -0.000059266362
 97       0.000038741220
 98      -0.000015697212
 99      -0.000261397719
100       0.000166852967
101      -0.000000571152
102       0.001036463786
103      -0.000682996769
104       0.000027991169
105       0.000005167891
106      -0.000108366850
107      -0.000111654418
108      -0.000053641115
109      -0.851813943326
110      -0.019207462859
111       0.009794766855
112      -0.008593359623
113       0.000109891948
114       0.000033231895
115       0.000016236544
116       0.000490436694
117       0.000148773332
118       0.000072171144
119      -0.001910224407
120      -0.000550710292
121      -0.000299829414
122       0.000109324305
123      -0.000071017696
124      -0.000048568702
125      -0.000205230191
126      -0.000096067030
 Sym=     1a
 Ene= -1.40768227277107E+01
 Spin= Alpha
 Occup= 2.000000
  1       0.000102759048
  2      -0.000242875231
  3       0.000876846342
  4      -0.002000080626
  5       0.003390439464
  6       0.002949690355
  7       0.000196565405
  8      -0.000354709516
  9       0.000299794591
 10      -0.001126042055
 11       0.002002240600
 12      -0.001701816297
 13      -0.000193093033
 14       0.001570087901
 15      -0.001098914135
 16       0.000005323437
 17       0.000006635421
 18      -0.000074040877
 19      -0.000061048583
 20      -0.000019345027
 21       0.001173998329
 22       0.000363166913
 23      -0.005006500628
 24      -0.004950663944
 25      -0.002427859701
 26      -0.000139553504
 27      -0.000006564575
 28      -0.000086308106
 29      -0.000124349840
 30      -0.000074260432
 31      -0.000003345317
 32      -0.000088868102
 33       0.227421791948
 34      -0.011137086807
 35       0.007736447453
 36       0.000280880433
 37       0.000144134227
 38       0.000001576583
 39      -0.001779132063
 40       0.000563492099
 41      -0.000979826313
 42      -0.000130283672
 43       0.000008723172
 44       0.000145182007
 45       0.000253005621
 46       0.000187272565
 47       0.000404962612
 48      -0.001168940084
 49       0.000092094533
 50      -0.000769718665
 51      -0.000131951263
 52       0.000413723993
 53      -0.001165098482
 54      -0.000208167184
 55      -0.000193133716
 56       0.000733539908
 57       0.000912312085
 58       0.000052035462
 59      -0.000224964639
 60       0.000770718172
 61      -0.000593284946
 62      -0.961470906056
 63       0.045811532279
 64      -0.025174304752
 65       0.000302132636
 66      -0.001332291713
 67       0.000980192375
 68      -0.001001361842
 69       0.004656965903
 70      -0.003407367555
 71      -0.000020689837
 72      -0.000340107027
 73       0.001273213216
 74       0.000785600689
 75       0.000447452484
 76      -0.002930393003
 77       0.001648080665
 78       0.000647363602
 79       0.002809316370
 80       0.002175058584
 81      -0.002748655622
 82       0.001531857272
 83      -0.003427581795
 84      -0.000558190504
 85      -0.000814532323
 86      -0.002931419719
 87       0.001644029157
 88       0.002336391380
 89      -0.000409148369
 90      -0.002724819092
 91       0.000009329750
 92      -0.000092717208
 93       0.001150038440
 94      -0.004651518784
 95       0.000002609424
 96       0.000054348191
 97      -0.000034989697
 98      -0.000001676062
 99       0.000374789122
100      -0.000248006903
101       0.000380359354
102      -0.002483703483
103       0.001769174897
104      -0.000018703697
105      -0.000049531111
106       0.000345905754
107       0.000259295328
108       0.000099443264
109      -0.000007897641
110       0.000072665083
111      -0.000591569788
112       0.002235468979
113      -0.000058199970
114      -0.000030195297
115      -0.000000333769
116      -0.000339183555
117      -0.000157283516
118      -0.000014236523
119       0.001649694217
120       0.000292965516
121       0.000379230612
122      -0.000076207130
123       0.000029827689
124       0.000057074421
125       0.000145790952
126       0.000086898343
 Sym=     1a
 Ene= -1.40767401553578E+01
 Spin= Alpha
 Occup= 2.000000
  1       0.000166479113
  2      -0.000393491335
  3       0.001420961094
  4      -0.003241501403
  5       0.005490660381
  6       0.004787549983
  7      -0.000437608228
  8      -0.000188905942
  9      -0.000025476103
 10       0.002470406804
 11       0.001056192814
 12       0.000153905413
 13       0.001951582877
 14       0.001398562356
 15      -0.000248629220
 16      -0.000044677133
 17       0.000025735578
 18      -0.000018286550
 19       0.000051079321
 20       0.000038219269
 21      -0.002442015307
 22       0.001864314482
 23       0.000179087818
 24       0.004079158632
 25       0.001802446373
 26       0.000041590781
 27       0.000118861638
 28       0.000027101163
 29      -0.000113644787
 30      -0.000008398954
 31       0.000117754216
 32       0.000095180348
 33      -0.961487589140
 34       0.045660265481
 35      -0.024282534831
 36      -0.001663374173
 37      -0.000323786024
 38      -0.000355999339
 39       0.005389281314
 40       0.001730895437
 41       0.000711831048
 42       0.000715266025
 43      -0.000611035730
 44      -0.000035394107
 45      -0.001243093335
 46      -0.000466020492
 47      -0.003077987967
 48       0.001253274296
 49      -0.000123685589
 50       0.003229604734
 51       0.001732356748
 52      -0.003072684843
 53       0.001253133855
 54       0.001609248489
 55      -0.000128603442
 56      -0.003290791617
 57      -0.002613457450
 58       0.001737124083
 59       0.000851140974
 60      -0.002671084648
 61       0.002074980670
 62      -0.227491777294
 63       0.010501601202
 64      -0.003958380047
 65       0.000195190232
 66      -0.000367983493
 67       0.000309102970
 68       0.001064096347
 69       0.001157143287
 70      -0.000394106918
 71       0.000059282758
 72      -0.000223737767
 73       0.000392025675
 74       0.000079395512
 75       0.000152463775
 76      -0.001012604003
 77      -0.000483938436
 78      -0.000082008237
 79       0.000807815004
 80       0.000592133089
 81      -0.000355400599
 82       0.000823159638
 83      -0.000644697676
 84      -0.000089048631
 85      -0.000163600072
 86      -0.001014014496
 87      -0.000481356945
 88       0.000430140193
 89      -0.000167743180
 90      -0.000892413091
 91      -0.000004156976
 92       0.000034811659
 93      -0.000085677200
 94       0.000170290665
 95      -0.000007689246
 96      -0.000034850145
 97       0.000020393855
 98      -0.000030114766
 99      -0.000164984621
100       0.000098744846
101      -0.000252128274
102       0.000242730926
103      -0.000247582478
104       0.000017907923
105      -0.000024868068
106       0.000022312238
107      -0.000019572988
108      -0.000001518703
109       0.000006471328
110      -0.000067236638
111       0.000989977490
112      -0.004086584926
113       0.000037110173
114       0.000013621094
115       0.000004009184
116       0.000296685392
117       0.000103335814
118       0.000035511981
119      -0.002447211498
120      -0.000757819639
121      -0.000351831270
122       0.000180023371
123      -0.000111542828
124      -0.000040867915
125      -0.000300809586
126      -0.000160675227
 Sym=     1a
 Ene= -9.12777732263354E+00
 Spin= Alpha
 Occup= 2.000000
  1       0.000151334991
  2      -0.000371921644
  3       0.001544632592
  4      -0.003599606203
  5       0.003595205000
  6       0.009507114175
  7       0.000077593466
  8       0.000132840550
  9      -0.000061159143
 10      -0.000345342973
 11      -0.000744156463
 12       0.000371719520
 13      -0.001682118852
 14      -0.005850131064
 15       0.003265433440
 16       0.000076377326
 17      -0.000035759877
 18       0.000105229192
 19      -0.000019311024
 20      -0.000067868444
 21      -0.001430188746
 22       0.001762024324
 23      -0.004430285566
 24      -0.000765176424
 25       0.000078010008
 26      -0.000026077085
 27       0.000022192938
 28       0.000000459241
 29      -0.000017182986
 30      -0.000008123944
 31      -0.000004240772
 32       0.000021623033
 33      -0.000007001922
 34       0.000297952824
 35      -0.002435719391
 36      -0.000063234508
 37      -0.000058902179
 38       0.000016343807
 39       0.000455353394
 40       0.000289085098
 41      -0.000047759291
 42       0.000021989764
 43       0.000026474153
 44       0.000039351761
 45       0.000034694312
 46      -0.000051752358
 47       0.000219767440
 48       0.000211981318
 49      -0.000040315095
 50      -0.000010850792
 51      -0.000087502334
 52       0.000214797833
 53       0.000189941471
 54      -0.000073879130
 55       0.000061340825
 56       0.000012350618
 57       0.000085739497
 58       0.000103261018
 59      -0.000244486694
 60      -0.000060574820
 61      -0.000044953657
 62       0.000018183353
 63       0.000680991745
 64      -0.005206492492
 65      -0.000021234508
 66      -0.000021400274
 67       0.000007067359
 68      -0.000121337124
 69       0.000937172850
 70      -0.000652451912
 71       0.000013479832
 72       0.000011122438
 73       0.000036909391
 74       0.000025695727
 75      -0.000026110501
 76       0.000234604600
 77       0.001079329387
 78       0.000028343783
 79      -0.000146247352
 80      -0.000019751280
 81       0.000149233707
 82       0.000981727451
 83       0.000097529002
 84      -0.000104721286
 85       0.000101628095
 86       0.000236582171
 87       0.001082380410
 88      -0.000028091589
 89      -0.000039906003
 90       0.000142850294
 91      -0.279543935607
 92       0.915056863522
 93       0.052504582784
 94      -0.029820138442
 95       0.000348628456
 96      -0.002709935243
 97       0.001908125098
 98      -0.000375213240
 99       0.001318391067
100      -0.000998313689
101       0.001260915748
102      -0.004110108737
103       0.003143408865
104       0.000016027655
105      -0.000096669287
106       0.000316282896
107       0.000163154168
108       0.000091190373
109      -0.136948686815
110       0.448256445307
111       0.026118738800
112      -0.015170386093
113      -0.001551477428
114      -0.000473902980
115      -0.000224748577
116       0.000822843647
117       0.000025390765
118       0.000268414527
119      -0.002546447581
120       0.000013530508
121      -0.000891491646
122       0.000102561300
123      -0.000107000417
124       0.000080207353
125      -0.000122951217
126      -0.000043187406
 Sym=     1a
 Ene= -9.12775812138472E+00
 Spin= Alpha
 Occup= 2.000000
  1       0.000051844316
  2      -0.000127408246
  3       0.000528967320
  4      -0.001232464593
  5       0.001231357933
  6       0.003255168714
  7       0.000085389507
  8       0.000016232762
  9       0.000020388719
 10      -0.000658851887
 11       0.000017343492
 12      -0.000243686297
 13      -0.007233993068
 14       0.001377231038
 15      -0.003408107352
 16       0.000019544321
 17      -0.000011172319
 18       0.000048529509
 19       0.000012620757
 20      -0.000014790523
 21      -0.002449006401
 22       0.001181501077
 23       0.002222894947
 24       0.005187669099
 25       0.002612515156
 26       0.000027630414
 27      -0.000002516643
 28       0.000009128784
 29      -0.000036665456
 30       0.000042707013
 31       0.000006073575
 32      -0.000024445884
 33       0.000038677653
 34       0.000726651141
 35      -0.005351442903
 36       0.000057558032
 37       0.000035349759
 38      -0.000003808558
 39       0.001195721584
 40       0.000146380254
 41       0.000315970585
 42       0.000017107027
 43      -0.000023425095
 44      -0.000033809125
 45      -0.000064233345
 46      -0.000005231364
 47       0.000103128591
 48       0.001496930150
 49      -0.000072476063
 50      -0.000141760959
 51      -0.000032534491
 52       0.000102638421
 53       0.001506721003
 54      -0.000118649616
 55      -0.000055375937
 56       0.000099077576
 57       0.000135097605
 58       0.001472560253
 59       0.000056141151
 60       0.000119607124
 61      -0.000058655928
 62      -0.000034909325
 63      -0.000391791191
 64       0.002735152858
 65      -0.000034666061
 66      -0.000089608166
 67       0.000046473101
 68       0.000362588003
 69      -0.000462215358
 70       0.000424353780
 71       0.000037715458
 72       0.000023851802
 73      -0.000021845537
 74      -0.000034596606
 75      -0.000077436578
 76       0.000053416166
 77      -0.001059248692
 78       0.000079643250
 79       0.000083013114
 80       0.000004387042
 81      -0.000054730643
 82      -0.001104688553
 83      -0.000060694367
 84      -0.000197391495
 85       0.000108886816
 86       0.000050978148
 87      -0.001062007138
 88       0.000094672042
 89       0.000056890057
 90      -0.000036473568
 91       0.136962067026
 92      -0.448379994500
 93      -0.025076918478
 94       0.013694476004
 95      -0.000205566425
 96       0.001315105268
 97      -0.000938548312
 98      -0.000056075778
 99      -0.000702711085
100       0.000443765980
101       0.000211745403
102       0.002279391562
103      -0.001428451438
104       0.000059563575
105      -0.000024051146
106      -0.000110283016
107      -0.000168203235
108      -0.000072679389
109      -0.279550513582
110       0.915117559772
111       0.051993829254
112      -0.029098849737
113      -0.003169292955
114      -0.000904364957
115      -0.000500985916
116       0.001594946522
117       0.000459648275
118       0.000250420448
119      -0.005062504997
120      -0.001444295114
121      -0.000804415807
122       0.000153782676
123      -0.000096700683
124      -0.000084104981
125      -0.000299161795
126      -0.000139319878
 Sym=     1a
 Ene= -6.95587152516183E+00
 Spin= Alpha
 Occup= 2.000000
  1      -0.000021312894
  2       0.000053743661
  3      -0.000269197421
  4       0.000801997917
  5      -0.001449439286
  6      -0.001200041101
  7      -0.000132633725
  8      -0.000027487657
  9      -0.000029067199
 10       0.001000085208
 11      -0.000004568221
 12       0.000352770349
 13       0.000700297871
 14      -0.000058885219
 15       0.000285254206
 16       0.000088341887
 17      -0.000063519824
 18      -0.000086167946
 19      -0.000209076120
 20      -0.000075757779
 21       0.001983311356
 22      -0.000697950119
 23      -0.002573680651
 24      -0.004627460249
 25      -0.002413464237
 26       0.000049801963
 27       0.000026795442
 28       0.000033603439
 29       0.000000445526
 30       0.000035674288
 31       0.000020066664
 32       0.000038388079
 33      -0.000059191287
 34      -0.000763966487
 35       0.004057738155
 36      -0.000195119713
 37      -0.000088979812
 38      -0.000007946957
 39      -0.002013322496
 40      -0.000748944643
 41      -0.000194120159
 42      -0.000020227443
 43       0.000051308454
 44      -0.000014517515
 45       0.000050770709
 46      -0.000018606116
 47      -0.000011666862
 48       0.000153832319
 49       0.000067473127
 50      -0.000010671293
 51      -0.000049310615
 52      -0.000011305576
 53       0.000156802020
 54       0.000031777581
 55       0.000057556551
 56       0.000052046742
 57      -0.000313097834
 58       0.000115577845
 59       0.000050962581
 60      -0.000018282562
 61       0.000029198648
 62       0.000061102467
 63       0.000658227380
 64      -0.003103755373
 65       0.000080860492
 66       0.000197090254
 67      -0.000101413180
 68       0.000484002724
 69       0.001483556452
 70      -0.000806175152
 71       0.000010894628
 72      -0.000071489800
 73       0.000032180557
 74      -0.000043508444
 75       0.000052269198
 76      -0.000120438330
 77      -0.000034693264
 78      -0.000090606435
 79       0.000010453778
 80       0.000091269932
 81       0.000463547820
 82       0.000004157761
 83       0.000093526070
 84       0.000047298120
 85       0.000001044116
 86      -0.000119245778
 87      -0.000032997602
 88      -0.000033562748
 89      -0.000099538955
 90      -0.000075479281
 91       0.000579435429
 92      -0.002079712852
 93       0.001386511001
 94      -0.003702085831
 95       0.079609754037
 96      -0.342930116875
 97       0.253935907938
 98      -0.004363003542
 99       0.018668020577
100      -0.013832799095
101       0.001052457067
102      -0.004481554157
103       0.003320157934
104      -0.000033425730
105      -0.000020638605
106       0.000125375142
107       0.000118245513
108       0.000076744877
109      -0.001171825752
110       0.004199471547
111      -0.002746008585
112       0.006556531209
113       0.842159585972
114       0.185365857326
115       0.169036295085
116      -0.045741904345
117      -0.010059563237
118      -0.009188848942
119       0.010197559889
120       0.002206535184
121       0.002076145712
122      -0.000119653499
123       0.000110417309
124       0.000053071549
125       0.000250916837
126       0.000076324819
 Sym=     1a
 Ene= -6.95585868157631E+00
 Spin= Alpha
 Occup= 2.000000
  1       0.000062968513
  2      -0.000158794999
  3       0.000795662517
  4      -0.002369637633
  5       0.004278636149
  6       0.003545902624
  7       0.000127760687
  8       0.000214292282
  9      -0.000097251280
 10      -0.000578417974
 11      -0.001187406471
 12       0.000582485896
 13      -0.000299435610
 14      -0.000717410993
 15       0.000366457858
 16      -0.000039924684
 17       0.000122617564
 18      -0.000167044184
 19       0.000003360087
 20      -0.000067538372
 21      -0.000496866274
 22       0.000486814537
 23      -0.002635967786
 24      -0.001268032691
 25       0.000046998985
 26       0.000036395087
 27      -0.000010691759
 28       0.000003562055
 29       0.000024541206
 30      -0.000002760910
 31       0.000020095109
 32      -0.000001888142
 33      -0.000023196837
 34      -0.000085138174
 35      -0.000193974268
 36      -0.000047490888
 37      -0.000121308386
 38       0.000063505803
 39       0.000266685872
 40      -0.000660652320
 41       0.000521160203
 42       0.000015252402
 43       0.000048709158
 44      -0.000044547380
 45      -0.000008652809