[Molden Format]
[Title]
 Molden file created by orca_2mkl for BaseName=orca_freq

[Atoms] AU
Pt   1  18         -5.4425939247         0.2591089045         0.3393609108
N    2   7         -1.7063405796         1.2142239524         0.9963776838
H    3   1         -1.4986427618         2.9451693181         1.8722102448
H    4   1         -0.6344488692         1.2655054187        -0.6330272664
H    5   1         -0.9052648646        -0.1268119639         2.1707260685
N    6   7         -6.0075222350         3.4010117474        -1.9209785930
H    7   1         -5.7258285023         5.0829882072        -0.9733588252
H    8   1         -7.8535411371         3.4011288212        -2.5623181468
H    9   1         -4.8505732457         3.4306180390        -3.4914842796
Cl  10  17         -4.7143815374        -3.2814867682         2.9224214936
Cl  11  17         -9.6916966132        -0.7539958231        -0.4660362383
[GTO]
  1 0
s   2 1.0 
       16.5595630000        -8.2111709246
       13.8924400000        12.2265939393
s   1 1.0 
        5.8531044732         2.6819445795
s   1 1.0 
        1.2498640609         0.8424753011
s   1 1.0 
        0.5560643946         0.4589378830
s   1 1.0 
        0.1379309381         0.1613081683
s   1 1.0 
        0.0489890341         0.0742137283
p   4 1.0 
        8.1000000000        15.3722926767
        7.2000000000       -17.3571319056
        1.5588402917         1.5346865251
        0.7323040218         0.5171486561
p   1 1.0 
        0.3027048467         0.3200474020
p   1 1.0 
        0.0500000000         0.0337017609
d   4 1.0 
        4.6299536825        -4.0045426569
        2.1980241252         2.6209846974
        0.9362999126         1.2947053721
        0.3716002816         0.2270955538
d   1 1.0 
        0.1315592862         0.0819280698
f   1 1.0 
        0.6681300000         2.3011094061

  2 0
s   5 1.0 
     1712.8415853000        -1.0337585405
      257.6481267700        -1.8620740805
       58.4582458530        -2.7290401880
       16.1983679050        -2.6956734544
        5.0052600809        -1.0640914367
s   1 1.0 
        0.5873185657         0.4781513534
s   1 1.0 
        0.1876459225         0.2031956662
p   3 1.0 
       13.5714702330        -2.1850243557
        2.9257372874        -1.7466999024
        0.7992775075        -0.8114650516
p   1 1.0 
        0.2195434803         0.2142105067
d   1 1.0 
        1.0000000000         2.8508218814

  3 0
s   3 1.0 
       13.0107010000         0.1634903809
        1.9622572000         0.2773515510
        0.4445379600         0.3157501452
s   1 1.0 
        0.1219496200         0.1470772262
p   1 1.0 
        0.8000000000         1.0784563492

  4 0
s   3 1.0 
       13.0107010000         0.1634903809
        1.9622572000         0.2773515510
        0.4445379600         0.3157501452
s   1 1.0 
        0.1219496200         0.1470772262
p   1 1.0 
        0.8000000000         1.0784563492

  5 0
s   3 1.0 
       13.0107010000         0.1634903809
        1.9622572000         0.2773515510
        0.4445379600         0.3157501452
s   1 1.0 
        0.1219496200         0.1470772262
p   1 1.0 
        0.8000000000         1.0784563492

  6 0
s   5 1.0 
     1712.8415853000        -1.0337585405
      257.6481267700        -1.8620740805
       58.4582458530        -2.7290401880
       16.1983679050        -2.6956734544
        5.0052600809        -1.0640914367
s   1 1.0 
        0.5873185657         0.4781513534
s   1 1.0 
        0.1876459225         0.2031956662
p   3 1.0 
       13.5714702330        -2.1850243557
        2.9257372874        -1.7466999024
        0.7992775075        -0.8114650516
p   1 1.0 
        0.2195434803         0.2142105067
d   1 1.0 
        1.0000000000         2.8508218814

  7 0
s   3 1.0 
       13.0107010000         0.1634903809
        1.9622572000         0.2773515510
        0.4445379600         0.3157501452
s   1 1.0 
        0.1219496200         0.1470772262
p   1 1.0 
        0.8000000000         1.0784563492

  8 0
s   3 1.0 
       13.0107010000         0.1634903809
        1.9622572000         0.2773515510
        0.4445379600         0.3157501452
s   1 1.0 
        0.1219496200         0.1470772262
p   1 1.0 
        0.8000000000         1.0784563492

  9 0
s   3 1.0 
       13.0107010000         0.1634903809
        1.9622572000         0.2773515510
        0.4445379600         0.3157501452
s   1 1.0 
        0.1219496200         0.1470772262
p   1 1.0 
        0.8000000000         1.0784563492

 10 0
s   5 1.0 
    10449.8275660000         3.9973241313
     1571.7365221000         7.2277480961
      357.1206552300        10.7494942607
      100.2518593500        10.7118498358
       30.8127275540         4.0765111022
s   3 1.0 
       51.9237894340        -1.2786987774
        5.7045760975         1.4832318965
        2.3508376809         0.6815120566
s   1 1.0 
        0.4460512467         0.3889991572
s   1 1.0 
        0.1684885619         0.1874294841
p   5 1.0 
      307.6679056900       -16.3095226390
       72.1020155150       -19.2520828188
       22.5326802620       -16.9965641132
        7.8991765444        -9.1249716393
        2.8767268321        -2.0801728153
p   1 1.0 
        0.7745936396         1.0358157160
p   1 1.0 
        0.2103769970         0.2030897020
d   1 1.0 
        0.6500000000         1.3414313681

 11 0
s   5 1.0 
    10449.8275660000         3.9973241313
     1571.7365221000         7.2277480961
      357.1206552300        10.7494942607
      100.2518593500        10.7118498358
       30.8127275540         4.0765111022
s   3 1.0 
       51.9237894340        -1.2786987774
        5.7045760975         1.4832318965
        2.3508376809         0.6815120566
s   1 1.0 
        0.4460512467         0.3889991572
s   1 1.0 
        0.1684885619         0.1874294841
p   5 1.0 
      307.6679056900       -16.3095226390
       72.1020155150       -19.2520828188
       22.5326802620       -16.9965641132
        7.8991765444        -9.1249716393
        2.8767268321        -2.0801728153
p   1 1.0 
        0.7745936396         1.0358157160
p   1 1.0 
        0.2103769970         0.2030897020
d   1 1.0 
        0.6500000000         1.3414313681

[5D]
[7F]
[9G]
[MO]
 Sym=     1a
 Ene= -1.00647940398344E+02
 Spin= Alpha
 Occup= 2.000000
  1       0.000147622881
  2      -0.000308389192
  3       0.000970899193
  4      -0.002003050520
  5       0.001940295441
  6       0.003607502622
  7       0.000068180627
  8       0.000092298393
  9      -0.000037044409
 10      -0.000201785732
 11      -0.000272719366
 12       0.000109353794
 13      -0.001203043167
 14      -0.001667527779
 15       0.000680321768
 16       0.000019881375
 17      -0.000011292227
 18       0.000029665514
 19      -0.000004640343
 20      -0.000015767938
 21      -0.000848621876
 22       0.000837960167
 23      -0.001463239345
 24       0.000326471555
 25       0.000330258925
 26      -0.000013712264
 27       0.000035519956
 28      -0.000010727030
 29      -0.000061259495
 30      -0.000021194672
 31       0.000040092276
 32       0.000010802479
 33       0.000004520295
 34       0.000231684128
 35      -0.001596971166
 36       0.000002597490
 37      -0.000012020718
 38       0.000008579122
 39       0.000426131275
 40       0.000160374787
 41       0.000035648583
 42       0.000013174050
 43       0.000005764523
 44       0.000013764683
 45       0.000004055882
 46      -0.000022631038
 47       0.000101102043
 48       0.000181957291
 49      -0.000033399519
 50      -0.000023180738
 51      -0.000028434584
 52       0.000099419519
 53       0.000174744212
 54      -0.000047087072
 55       0.000005722731
 56       0.000011450924
 57       0.000046546474
 58       0.000122410452
 59      -0.000067372059
 60       0.000004505028
 61      -0.000026339008
 62       0.000005433766
 63       0.000246339422
 64      -0.001708026180
 65      -0.000013845287
 66      -0.000001294180
 67      -0.000003848992
 68      -0.000014838377
 69       0.000404501781
 70      -0.000268749111
 71       0.000011427649
 72       0.000005882587
 73       0.000015760932
 74       0.000006219728
 75      -0.000020213791
 76       0.000101104182
 77       0.000203425107
 78       0.000014055918
 79      -0.000049054463
 80       0.000003487857
 81       0.000050126492
 82       0.000148611952
 83       0.000035768009
 84      -0.000045030986
 85       0.000041836677
 86       0.000101739027
 87       0.000205947989
 88      -0.000001464279
 89      -0.000020767151
 90       0.000047136243
 91      -0.724177694663
 92      -0.016362323742
 93       0.008582841457
 94      -0.007566117891
 95      -0.000025562788
 96       0.000075081865
 97      -0.000058294769
 98      -0.000135448789
 99       0.000344422697
100      -0.000273697540
101       0.000464736594
102      -0.001273957341
103       0.000999814850
104       0.000014945167
105      -0.000057330474
106       0.000191041942
107       0.000094209379
108       0.000046394869
109      -0.680928778706
110      -0.015387767172
111       0.008090695220
112      -0.007138417190
113       0.000089026851
114       0.000012262977
115       0.000022790890
116       0.000417168070
117       0.000042840097
118       0.000116430695
119      -0.001521948708
120      -0.000185118709
121      -0.000405815730
122       0.000101960529
123      -0.000081613678
124       0.000018055667
125      -0.000152236874
126      -0.000070445039
 Sym=     1a
 Ene= -1.00647912181804E+02
 Spin= Alpha
 Occup= 2.000000
  1      -0.000004528541
  2       0.000009458729
  3      -0.000029772386
  4       0.000061551739
  5      -0.000060165844
  6      -0.000111283366
  7      -0.000075398411
  8       0.000033995492
  9      -0.000049314273
 10       0.000225727332
 11      -0.000101638421
 12       0.000147206254
 13       0.002059673804
 14      -0.000975876919
 15       0.001353851141
 16       0.000000473517
 17       0.000000299974
 18      -0.000002909745
 19      -0.000003283686
 20      -0.000000850369
 21       0.000841252902
 22      -0.000266495742
 23      -0.001511158882
 24      -0.002278317366
 25      -0.001085878268
 26      -0.000046619889
 27      -0.000018538704
 28      -0.000026424029
 29      -0.000005441640
 30      -0.000024463566
 31      -0.000021128171
 32      -0.000030421888
 33      -0.000015518014
 34      -0.000250351730
 35       0.001860518297
 36      -0.000033766237
 37      -0.000022674199
 38       0.000003598150
 39      -0.000501396889
 40      -0.000078110268
 41      -0.000121238950
 42      -0.000003426594
 43       0.000012638128
 44       0.000018674179
 45       0.000029516992
 46      -0.000005267256
 47      -0.000014845728
 48      -0.000418171824
 49       0.000017077887
 50       0.000044850019
 51       0.000002607396
 52      -0.000014300365
 53      -0.000424320961
 54       0.000029338596
 55       0.000022579936
 56      -0.000032524058
 57      -0.000071227258
 58      -0.000447261111
 59      -0.000025698317
 60      -0.000033214008
 61       0.000012480447
 62       0.000015248756
 63       0.000235928811
 64      -0.001759253889
 65       0.000011578031
 66       0.000034864032
 67      -0.000018713210
 68      -0.000131140627
 69       0.000376841962
 70      -0.000291553314
 71      -0.000013777200
 72      -0.000008291956
 73       0.000012014254
 74       0.000016419513
 75       0.000028273750
 76       0.000007863709
 77       0.000409472683
 78      -0.000022636097
 79      -0.000040050663
 80      -0.000006509933
 81       0.000068218957
 82       0.000439560662
 83       0.000023262668
 84       0.000035659232
 85      -0.000015664728
 86       0.000008787641
 87       0.000408482240
 88      -0.000033845474
 89      -0.000018997377
 90       0.000025573825
 91      -0.680933489887
 92      -0.015343402755
 93       0.007746693730
 94      -0.006756756371
 95      -0.000004982751
 96       0.000076105588
 97      -0.000051884936
 98      -0.000013740982
 99       0.000340122720
100      -0.000228931524
101       0.000094221033
102      -0.001328505286
103       0.000907784969
104      -0.000024698111
105      -0.000016534719
106       0.000151982025
107       0.000134704803
108       0.000062889733
109       0.724182112697
110       0.016320707803
111      -0.008260251884
112       0.007210949026
113      -0.000092370703
114      -0.000030389036
115      -0.000012050985
116      -0.000410258850
117      -0.000141292219
118      -0.000049389040
119       0.001613705618
120       0.000523278859
121       0.000215290096
122      -0.000089717208
123       0.000053664098
124       0.000053272568
125       0.000175563415
126       0.000084102128
 Sym=     1a
 Ene= -1.40736593302126E+01
 Spin= Alpha
 Occup= 2.000000
  1       0.000090948531
  2      -0.000214796956
  3       0.000771493214
  4      -0.001764864598
  5       0.003031761398
  6       0.002659098490
  7       0.000235699092
  8      -0.000341576325
  9       0.000304253491
 10      -0.001303984468
 11       0.001956346455
 12      -0.001731660590
 13      -0.000344075735
 14       0.001505731316
 15      -0.001109368555
 16       0.000009541120
 17      -0.000000463937
 18      -0.000074214365
 19      -0.000071490767
 20      -0.000018649102
 21       0.001318662447
 22       0.000244955215
 23      -0.004988437941
 24      -0.005176468133
 25      -0.002525410186
 26      -0.000144568844
 27      -0.000007027539
 28      -0.000086454994
 29      -0.000120528295
 30      -0.000075913676
 31      -0.000008085266
 32      -0.000086881762
 33       0.278636979731
 34      -0.013639369916
 35       0.009185514838
 36       0.000342794702
 37       0.000175084516
 38       0.000002165970
 39      -0.002193572124
 40       0.000544844163
 41      -0.001110503268
 42      -0.000167620503
 43       0.000009907100
 44       0.000159817960
 45       0.000302793658
 46       0.000238885188
 47       0.000503145784
 48      -0.001237753178
 49       0.000128149837
 50      -0.000943729852
 51      -0.000187689740
 52       0.000513793283
 53      -0.001235920425
 54      -0.000253218923
 55      -0.000207466997
 56       0.000913781116
 57       0.001124578555
 58       0.000008928430
 59      -0.000308836620
 60       0.000920868913
 61      -0.000724923873
 62      -0.947889404031
 63       0.045199676750
 64      -0.024952639468
 65       0.000250710523
 66      -0.001307808072
 67       0.000945855037
 68      -0.001070692298
 69       0.004626943300
 70      -0.003410644551
 71      -0.000026112210
 72      -0.000264289333
 73       0.001233234993
 74       0.000821224417
 75       0.000382631364
 76      -0.002827249414
 77       0.001677757501
 78       0.000695339585
 79       0.002714020396
 80       0.002159477056
 81      -0.002803067364
 82       0.001432448420
 83      -0.003413723442
 84      -0.000473532968
 85      -0.000875112191
 86      -0.002827756044
 87       0.001672825760
 88       0.002353475732
 89      -0.000414777821
 90      -0.002610343423
 91       0.000009289444
 92      -0.000092038599
 93       0.001131883638
 94      -0.004575480242
 95       0.000003123822
 96       0.000055566075
 97      -0.000035632687
 98       0.000000262611
 99       0.000379172767
100      -0.000250317895
101       0.000382521776
102      -0.002472623110
103       0.001762686644
104      -0.000020691839
105      -0.000046922704
106       0.000343258680
107       0.000261258194
108       0.000099728993
109      -0.000007953519
110       0.000073249888
111      -0.000620236948
112       0.002412344661
113      -0.000058272065
114      -0.000029900471
115      -0.000000614913
116      -0.000343511194
117      -0.000154985436
118      -0.000017591936
119       0.001758481121
120       0.000321747852
121       0.000398868988
122      -0.000082761437
123       0.000040374910
124       0.000063787120
125       0.000166217574
126       0.000087407462
 Sym=     1a
 Ene= -1.40735814651956E+01
 Spin= Alpha
 Occup= 2.000000
  1      -0.000167018269
  2       0.000394478639
  3      -0.001417491964
  4       0.003242177055
  5      -0.005560326781
  6      -0.004889655371
  7       0.000420963651
  8       0.000190522226
  9       0.000018352799
 10      -0.002417366152
 11      -0.001135299921
 12      -0.000082334096
 13      -0.001950534621
 14      -0.001456285763
 15       0.000287117228
 16       0.000045000481
 17      -0.000016284809
 18       0.000017022152
 19      -0.000044907660
 20      -0.000047542450
 21       0.002353101143
 22      -0.001851455617
 23       0.000047327920
 24      -0.003796819607
 25      -0.001664515411
 26      -0.000029449937
 27      -0.000124290213
 28      -0.000022240416
 29       0.000132454507
 30       0.000010399961
 31      -0.000118829959
 32      -0.000091196790
 33       0.947913529581
 34      -0.044972851275
 35       0.023764197111
 36       0.001638797574
 37       0.000339237588
 38       0.000336011904
 39      -0.005262751381
 40      -0.001816209087
 41      -0.000610100925
 42      -0.000710975635
 43       0.000554365284
 44       0.000048128485
 45       0.001203915239
 46       0.000509619565
 47       0.003041095318
 48      -0.001191492618
 49       0.000156601181
 50      -0.003190253413
 51      -0.001678760579
 52       0.003034375202
 53      -0.001192748720
 54      -0.001545459177
 55       0.000121129637
 56       0.003256652530
 57       0.002605268767
 58      -0.001706598589
 59      -0.000935418982
 60       0.002598926347
 61      -0.002061830673
 62       0.278718607366
 63      -0.012870378074
 64       0.005133906185
 65      -0.000217530057
 66       0.000453218762
 67      -0.000372454459
 68      -0.001167269617
 69      -0.001359456312
 70       0.000491137895
 71      -0.000058802352
 72       0.000238599380
 73      -0.000462745786
 74      -0.000126544687
 75      -0.000171527607
 76       0.001215391263
 77       0.000397094668
 78       0.000057475298
 79      -0.000962854764
 80      -0.000710353846
 81       0.000464145296
 82      -0.000929462342
 83       0.000812741966
 84       0.000095516763
 85       0.000218943670
 86       0.001220433557
 87       0.000394528125
 88      -0.000553589595
 89       0.000188462880
 90       0.001045105096
 91       0.000003452352
 92      -0.000027616489
 93       0.000007230698
 94       0.000080628412
 95       0.000007080195
 96       0.000030022058
 97      -0.000017432892
 98       0.000025360047
 99       0.000132766761
100      -0.000079198717
101       0.000243162860
102      -0.000096500963
103       0.000148044052
104      -0.000021455331
105       0.000021751339
106      -0.000043135912
107       0.000003594583
108       0.000007775943
109      -0.000005932789
110       0.000062361840
111      -0.000948001146
112       0.003896969682
113      -0.000034337931
114      -0.000012424974
115      -0.000003848722
116      -0.000280092785
117      -0.000097992844
118      -0.000033376067
119       0.002337109079
120       0.000747088717
121       0.000321249091
122      -0.000176905036
123       0.000105953725
124       0.000037018223
125       0.000289882893
126       0.000161234064
 Sym=     1a
 Ene= -9.12989552202330E+00
 Spin= Alpha
 Occup= 2.000000
  1      -0.000160989893
  2       0.000395729780
  3      -0.001644561462
  4       0.003818017832
  5      -0.003771888623
  6      -0.009966332309
  7      -0.000100432709
  8      -0.000118269580
  9       0.000042708481
 10       0.000559721801
 11       0.000621495526
 12      -0.000214173994
 13       0.004674969584
 14       0.004761149237
 15      -0.001514366751
 16      -0.000077289946
 17       0.000045711677
 18      -0.000118239485
 19       0.000016791532
 20       0.000059516353
 21       0.002358762136
 22      -0.002093025055
 23       0.003067854042
 24      -0.001528984882
 25      -0.001217315368
 26       0.000011544848
 27      -0.000024091144
 28      -0.000002253934
 29       0.000040045346
 30      -0.000006087516
 31      -0.000007877098
 32      -0.000010405220
 33      -0.000009834628
 34      -0.000581806487
 35       0.004508285623
 36       0.000028079116
 37       0.000037378320
 38      -0.000014113896
 39      -0.000925989037
 40      -0.000328921380
 41      -0.000087020438
 42      -0.000027832880
 43      -0.000010151037
 44      -0.000022547671
 45      -0.000001693870
 46       0.000046320446
 47      -0.000240068351
 48      -0.000876316085
 49       0.000068412537
 50       0.000077465714
 51       0.000086914421
 52      -0.000234986320
 53      -0.000856639447
 54       0.000117508317
 55      -0.000023963683
 56      -0.000056713922
 57      -0.000127268617
 58      -0.000678141800
 59       0.000173825248
 60      -0.000015603501
 61       0.000070412896
 62      -0.000001120946
 63      -0.000449493184
 64       0.003538752605
 65       0.000036609834
 66       0.000052827393
 67      -0.000022280053
 68      -0.000039454484
 69      -0.000654108626
 70       0.000410357658
 71      -0.000028102220
 72      -0.000016122502
 73      -0.000026327135
 74      -0.000006495193
 75       0.000052300483
 76      -0.000232093630
 77      -0.000563197415
 78      -0.000052276285
 79       0.000099333441
 80       0.000014367003
 81      -0.000097923874
 82      -0.000349853381
 83      -0.000075326306
 84       0.000146341823
 85      -0.000121987110
 86      -0.000233580464
 87      -0.000571781338
 88      -0.000007289306
 89       0.000017129600
 90      -0.000112594320
 91       0.193656721241
 92      -0.633893264115
 93      -0.036653569439
 94       0.021058091320
 95      -0.000259511046
 96       0.001821428584
 97      -0.001290920413
 98       0.000370997430
 99      -0.000885322578
100       0.000711332577
101      -0.001241548942
102       0.002736133811
103      -0.002231215271
104      -0.000039315664
105       0.000098682475
106      -0.000240991665
107      -0.000077239628
108      -0.000053404727
109       0.243713239811
110      -0.797759141703
111      -0.045910562847
112       0.026186035441
113       0.002695135431
114       0.000751854999
115       0.000437400819
116      -0.001425807920
117      -0.000210504701
118      -0.000355661431
119       0.004477841541
120       0.000600270684
121       0.001157133157
122      -0.000160631854
123       0.000139881162
124      -0.000035819597
125       0.000243284822
126       0.000100102297
 Sym=     1a
 Ene= -9.12987906347338E+00
 Spin= Alpha
 Occup= 2.000000
  1       0.000018432766
  2      -0.000045316033
  3       0.000188522638
  4      -0.000437646203
  5       0.000431157415
  6       0.001140192415
  7      -0.000047992332
  8       0.000042992174
  9      -0.000046876764
 10       0.000438662187
 11      -0.000323138022
 12       0.000369852518
 13       0.005774402724
 14      -0.003749950499
 15       0.004461149206
 16       0.000014728717
 17      -0.000006044982
 18       0.000002337467
 19      -0.000019760461
 20      -0.000014353870
 21       0.001581992155
 22      -0.000308024280
 23      -0.003887124612
 24      -0.004976763083
 25      -0.002304664828
 26      -0.000042605343
 27       0.000008859601
 28      -0.000012647165
 29       0.000021658937
 30      -0.000044661542
 31      -0.000009379130
 32       0.000024453192
 33      -0.000037046499
 34      -0.000515217122
 35       0.003771821684
 36      -0.000066935470
 37      -0.000057906375
 38       0.000015316798
 39      -0.000844779912
 40      -0.000037381369
 41      -0.000272560903
 42      -0.000006070841
 43       0.000027058499
 44       0.000045453580
 45       0.000067148135
 46      -0.000012662057
 47       0.000002263232
 48      -0.001224039156
 49       0.000042542483
 50       0.000120527949
 51      -0.000007465428
 52       0.000001173187
 53      -0.001246999170
 54       0.000070412868
 55       0.000072897556
 56      -0.000085161081
 57      -0.000107525140
 58      -0.001361785661
 59      -0.000116939375
 60      -0.000106676187
 61       0.000028859418
 62       0.000038401683
 63       0.000634083467
 64      -0.004694349974
 65       0.000027946011
 66       0.000064306833
 67      -0.000032106425
 68      -0.000329238136
 69       0.000804122186
 70      -0.000638339403
 71      -0.000025866039
 72      -0.000013159355
 73       0.000033843808
 74       0.000041964545
 75       0.000051964566
 76       0.000050952978
 77       0.001399466778
 78      -0.000060680196
 79      -0.000134375813
 80      -0.000016159519
 81       0.000133232800
 82       0.001481197281
 83       0.000086261488
 84       0.000100312607
 85      -0.000036755651
 86       0.000053167495
 87       0.001397207494
 88      -0.000098225283
 89      -0.000063915255
 90       0.000091143319
 91      -0.243722940411
 92       0.797848420379
 93       0.045163724774
 94      -0.025084584373
 95       0.000377029544
 96      -0.002274990592
 97       0.001630585262
 98      -0.000118079170
 99       0.001190916090
100      -0.000825697227
101       0.000338602044
102      -0.003808384104
103       0.002626010757
104      -0.000044589389
105      -0.000019460222
106       0.000239709030
107       0.000223479566
108       0.000101653083
109       0.193668916691
110      -0.634005489352
111      -0.035715165918
112       0.019680647190
113       0.002143851633
114       0.000562207477
115       0.000371468080
116      -0.001080023428
117      -0.000396181754
118      -0.000113979504
119       0.003455770785
120       0.001312793380
121       0.000334585925
122      -0.000097549351
123       0.000041072321
124       0.000107560946
125       0.000217388731
126       0.000111057052
 Sym=     1a
 Ene= -6.95789212374585E+00
 Spin= Alpha
 Occup= 2.000000
  1       0.000039929778
  2      -0.000100668549
  3       0.000499242944
  4      -0.001452218688
  5       0.002545036440
  6       0.002155551320
  7       0.000169751555
  8       0.000076081373
  9       0.000009965031
 10      -0.001105782055
 11      -0.000286469411
 12      -0.000197871870
 13      -0.000777395045
 14      -0.000092889131
 15      -0.000212774162
 16      -0.000095507462
 17       0.000089666341
 18       0.000041746250
 19       0.000201330994
 20       0.000058781685
 21      -0.002056513743
 22       0.000818015892
 23       0.001745540485
 24       0.004121561057
 25       0.002338844725
 26      -0.000031100715
 27      -0.000023945642
 28      -0.000028622290
 29       0.000002343605
 30      -0.000033297243
 31      -0.000006709817
 32      -0.000033184261
 33       0.000050759288
 34       0.000711193418
 35      -0.003978822878
 36       0.000173296730
 37       0.000058698644
 38       0.000020171996
 39       0.002005784438
 40       0.000596930188
 41       0.000287931630
 42       0.000024123358
 43      -0.000035723606
 44       0.000002822666
 45      -0.000050655013
 46      -0.000001717570
 47       0.000062021693
 48      -0.000189980671
 49      -0.000065732309
 50       0.000015470249
 51       0.000016546546
 52       0.000059755704
 53      -0.000195915489
 54      -0.000042831993
 55      -0.000026548546
 56      -0.000046859450
 57       0.000215417477
 58      -0.000142484217
 59      -0.000075899458
 60      -0.000019627985
 61      -0.000012297417
 62      -0.000052698714
 63      -0.000503751802
 64       0.002222156089
 65      -0.000100383005
 66      -0.000171273273
 67       0.000077665651
 68      -0.000652395902
 69      -0.001109276887
 70       0.000503122411
 71      -0.000010581048
 72       0.000070062349
 73      -0.000019538977
 74       0.000051614650
 75      -0.000049756690
 76       0.000163766615
 77      -0.000043678633
 78       0.000103890308
 79      -0.000019587808
 80      -0.000080652139
 81      -0.000470978132
 82      -0.000061512180
 83      -0.000088780638
 84      -0.000050200983
 85       0.000002051154
 86       0.000164559235
 87      -0.000043638894
 88       0.000045287889
 89       0.000090133630
 90       0.000086654192
 91      -0.000250517258
 92       0.000902072062
 93      -0.000624662656
 94       0.001980832521
 95      -0.034269677222
 96       0.151459431050
 97      -0.111821435553
 98       0.001909980232
 99      -0.008274609542
100       0.006121738578
101      -0.000509500797
102       0.002240827007
103      -0.001653569550
104       0.000032109909
105      -0.000002987983
106      -0.000063749240
107      -0.000086044193
108      -0.000048343653
109       0.001252558063
110      -0.004493655461
111       0.003000280791
112      -0.006981702303
113      -0.920834259077
114      -0.207326386980
115      -0.181861624232
116       0.049980281601
117       0.011247082894
118       0.009876970582
119      -0.010975654873
120      -0.002419719630
121      -0.002205816360
122       0.000134105869
123      -0.000120528999
124      -0.000043849742
125      -0.000265797385
126      -0.000087137909
 Sym=     1a
 Ene= -6.95786646196820E+00
 Spin= Alpha
 Occup= 2.000000
  1      -0.000059960687
  2       0.000151175291
  3      -0.000749660570
  4       0.002178414283
  5      -0.003811287535
  6      -0.003232070790
  7      -0.000081022771
  8      -0.000201407580
  9       0.000105226498
 10       0.000278801340
 11       0.001124219244
 12      -0.000645392300
 13       0.000062276185
 14       0.000694729515
 15      -0.000434742898
 16       0.000015089496
 17      -0.000096417881
 18       0.000181522964
 19       0.000054363394
 20       0.000080463077
 21       0.000007881029
 22      -0.000323856348
 23       0.003255336304
 24       0.002389167735
 25       0.000555170676
 26      -0.000042519704
 27       0.000001664168
 28      -0.000007332060
 29      -0.000016705210
 30       0.000000332721
 31      -0.000029029054
 32      -0.000005654042
 33       0.000035902091
 34       0.000249421661
 35      -0.000753489425
 36       0.000086532607
 37       0.000135009661
 38      -0.000059307585
 39       0.000193134441
 40       0.000786589476
 41      -0.000446785942
 42      -0.000010896353
 43      -0.000056835267
 44       0.000041539053
 45      -0.000005372350