
                                 *****************
                                 * O   R   C   A *
                                 *****************

                                            #,                                       
                                            ###                                      
                                            ####                                     
                                            #####                                    
                                            ######                                   
                                           ########,                                 
                                     ,,################,,,,,                         
                               ,,#################################,,                 
                          ,,##########################################,,             
                       ,#########################################, ''#####,          
                    ,#############################################,,   '####,        
                  ,##################################################,,,,####,       
                ,###########''''           ''''###############################       
              ,#####''   ,,,,##########,,,,          '''####'''          '####       
            ,##' ,,,,###########################,,,                        '##       
           ' ,,###''''                  '''############,,,                           
         ,,##''                                '''############,,,,        ,,,,,,###''
      ,#''                                            '''#######################'''  
     '                                                          ''''####''''         
             ,#######,   #######,   ,#######,      ##                                
            ,#'     '#,  ##    ##  ,#'     '#,    #''#        ######   ,####,        
            ##       ##  ##   ,#'  ##            #'  '#       #        #'  '#        
            ##       ##  #######   ##           ,######,      #####,   #    #        
            '#,     ,#'  ##    ##  '#,     ,#' ,#      #,         ##   #,  ,#        
             '#######'   ##     ##  '#######'  #'      '#     #####' # '####'        



                  #######################################################
                  #                        -***-                        #
                  #          Department of theory and spectroscopy      #
                  #    Directorship and core code : Frank Neese         #
                  #        Max Planck Institute fuer Kohlenforschung    #
                  #                Kaiser Wilhelm Platz 1               #
                  #                 D-45470 Muelheim/Ruhr               #
                  #                      Germany                        #
                  #                                                     #
                  #                  All rights reserved                #
                  #                        -***-                        #
                  #######################################################


                         Program Version 5.0.3 -  RELEASE  -


 With contributions from (in alphabetic order):
   Daniel Aravena         : Magnetic Suceptibility
   Michael Atanasov       : Ab Initio Ligand Field Theory (pilot matlab implementation)
   Alexander A. Auer      : GIAO ZORA, VPT2 properties, NMR spectrum
   Ute Becker             : Parallelization
   Giovanni Bistoni       : ED, misc. LED, open-shell LED, HFLD
   Martin Brehm           : Molecular dynamics
   Dmytro Bykov           : SCF Hessian
   Vijay G. Chilkuri      : MRCI spin determinant printing, contributions to CSF-ICE
   Dipayan Datta          : RHF DLPNO-CCSD density
   Achintya Kumar Dutta   : EOM-CC, STEOM-CC
   Dmitry Ganyushin       : Spin-Orbit,Spin-Spin,Magnetic field MRCI
   Miquel Garcia          : C-PCM and meta-GGA Hessian, CC/C-PCM, Gaussian charge scheme
   Yang Guo               : DLPNO-NEVPT2, F12-NEVPT2, CIM, IAO-localization
   Andreas Hansen         : Spin unrestricted coupled pair/coupled cluster methods
   Benjamin Helmich-Paris : MC-RPA, TRAH-SCF, COSX integrals
   Lee Huntington         : MR-EOM, pCC
   Robert Izsak           : Overlap fitted RIJCOSX, COSX-SCS-MP3, EOM
   Marcus Kettner         : VPT2
   Christian Kollmar      : KDIIS, OOCD, Brueckner-CCSD(T), CCSD density, CASPT2, CASPT2-K
   Simone Kossmann        : Meta GGA functionals, TD-DFT gradient, OOMP2, MP2 Hessian
   Martin Krupicka        : Initial AUTO-CI
   Lucas Lang             : DCDCAS
   Marvin Lechner         : AUTO-CI (C++ implementation), FIC-MRCC
   Dagmar Lenk            : GEPOL surface, SMD
   Dimitrios Liakos       : Extrapolation schemes; Compound Job, initial MDCI parallelization
   Dimitrios Manganas     : Further ROCIS development; embedding schemes
   Dimitrios Pantazis     : SARC Basis sets
   Anastasios Papadopoulos: AUTO-CI, single reference methods and gradients
   Taras Petrenko         : DFT Hessian,TD-DFT gradient, ASA, ECA, R-Raman, ABS, FL, XAS/XES, NRVS
   Peter Pinski           : DLPNO-MP2, DLPNO-MP2 Gradient
   Christoph Reimann      : Effective Core Potentials
   Marius Retegan         : Local ZFS, SOC
   Christoph Riplinger    : Optimizer, TS searches, QM/MM, DLPNO-CCSD(T), (RO)-DLPNO pert. Triples
   Tobias Risthaus        : Range-separated hybrids, TD-DFT gradient, RPA, STAB
   Michael Roemelt        : Original ROCIS implementation
   Masaaki Saitow         : Open-shell DLPNO-CCSD energy and density
   Barbara Sandhoefer     : DKH picture change effects
   Avijit Sen             : IP-ROCIS
   Kantharuban Sivalingam : CASSCF convergence, NEVPT2, FIC-MRCI
   Bernardo de Souza      : ESD, SOC TD-DFT
   Georgi Stoychev        : AutoAux, RI-MP2 NMR, DLPNO-MP2 response
   Willem Van den Heuvel  : Paramagnetic NMR
   Boris Wezisla          : Elementary symmetry handling
   Frank Wennmohs         : Technical directorship


 We gratefully acknowledge several colleagues who have allowed us to
 interface, adapt or use parts of their codes:
   Stefan Grimme, W. Hujo, H. Kruse, P. Pracht,  : VdW corrections, initial TS optimization,
                  C. Bannwarth, S. Ehlert          DFT functionals, gCP, sTDA/sTD-DF
   Ed Valeev, F. Pavosevic, A. Kumar             : LibInt (2-el integral package), F12 methods
   Garnet Chan, S. Sharma, J. Yang, R. Olivares  : DMRG
   Ulf Ekstrom                                   : XCFun DFT Library
   Mihaly Kallay                                 : mrcc  (arbitrary order and MRCC methods)
   Jiri Pittner, Ondrej Demel                    : Mk-CCSD
   Frank Weinhold                                : gennbo (NPA and NBO analysis)
   Christopher J. Cramer and Donald G. Truhlar   : smd solvation model
   Lars Goerigk                                  : TD-DFT with DH, B97 family of functionals
   V. Asgeirsson, H. Jonsson                     : NEB implementation
   FAccTs GmbH                                   : IRC, NEB, NEB-TS, DLPNO-Multilevel, CI-OPT
                                                   MM, QMMM, 2- and 3-layer-ONIOM, Crystal-QMMM,
                                                   LR-CPCM, SF, NACMEs, symmetry and pop. for TD-DFT,
                                                   nearIR, NL-DFT gradient (VV10), updates on ESD,
                                                   ML-optimized integration grids
   S Lehtola, MJT Oliveira, MAL Marques          : LibXC Library
   Liviu Ungur et al                             : ANISO software


 Your calculation uses the libint2 library for the computation of 2-el integrals
 For citations please refer to: http://libint.valeyev.net

 Your ORCA version has been built with support for libXC version: 5.1.0
 For citations please refer to: https://tddft.org/programs/libxc/

 This ORCA versions uses:
   CBLAS   interface :  Fast vector & matrix operations
   LAPACKE interface :  Fast linear algebra routines
   SCALAPACK package :  Parallel linear algebra routines
   Shared memory     :  Shared parallel matrices
   BLAS/LAPACK       :  OpenBLAS 0.3.15  USE64BITINT DYNAMIC_ARCH NO_AFFINITY Zen SINGLE_THREADED
        Core in use  :  Zen
   Copyright (c) 2011-2014, The OpenBLAS Project




***************************************
The coordinates will be read from file: input.xyz
***************************************


Your calculation utilizes the atom-pairwise dispersion correction
with the Becke-Johnson damping scheme (D3BJ)
Cite in your paper:
S.Grimme, S.Ehrlich, L.Goerigk, J Comput Chem, (2011), 32, 1456–1465 
S.Grimme, J.Antony, S.Ehrlich and H.Krieg, J.Chem.Phys., 132, (2010), 154104 
   

================================================================================

cite the ECPs for Pt [Def2-ECP] as follows:
Ce-Yb(ecp-28): M. Dolg, H. Stoll, H.Preuss, J. Chem. Phys., 1989, 90, 1730-1734.
Y-Cd(ecp-28), Hf-Hg(ecp-46): D. Andrae,U. Haeussermann, M. Dolg, H. Stoll, H. Preuss, Theor. Chim. Acta, 1990, 77, 123-141.
In-Sb(ecp-28), Tl-Bi(ecp-46): B. Metz, H. Stoll, M. Dolg, J. Chem. Phys., 2000, 113, 2563-2569.
Te-Xe(ecp-28), Po-Rn(ecp-46): K. A. Peterson, D. Figgen, E. Goll, H. Stoll, M. Dolg, J. Chem. Phys., 2003, 119, 11113-11123.
Rb(ecp-28), Cs(ecp-46): T. Leininger, A. Nicklass, W. Kuechle, H. Stoll, M. Dolg, A. Bergner, Chem. Phys. Lett., 1996, 255, 274-280.
Sr(ecp-28), Ba(ecp-46): M. Kaupp, P. V. Schleyer, H. Stoll and H. Preuss, J. Chem. Phys., 1991, 94, 1360-1366.
La(ecp-46): M. Dolg, H. Stoll, A. Savin, H. Preuss, Theor. Chim. Acta, 1989, 75, 173-194.
Lu(ecp-28): X. Cao, M. Dolg, J. Chem. Phys., 2001, 115, 7348-7355.

ECP parameters for Pt [Def2-ECP] have been obtained from:
TURBOMOLE (7.0.2)

----- Orbital basis set information -----
Your calculation utilizes the basis: def2-SVP
   F. Weigend and R. Ahlrichs, Phys. Chem. Chem. Phys. 7, 3297 (2005).

----- AuxJ basis set information -----
Your calculation utilizes the auxiliary basis: def2/J
   F. Weigend, Phys. Chem. Chem. Phys. 8, 1057 (2006).

================================================================================
                                        WARNINGS
                       Please study these warnings very carefully!
================================================================================


INFO   : the flag for use of the SHARK integral package has been found!

================================================================================
                                       INPUT FILE
================================================================================
NAME = orca_freq.inp
|  1> ! BP86 def2-SVP D3 
|  2> ! FREQ
|  3> ! CPCM(CH2Cl2)
|  4> 
|  5> %PAL NPROCS 8 END
|  6> 
|  7> %scf
|  8> maxiter 350
|  9> end
| 10> 
| 11> * xyzfile 0 1 input.xyz
| 12> 
| 13>                          ****END OF INPUT****
================================================================================

                       ****************************
                       * Single Point Calculation *
                       ****************************

---------------------------------
CARTESIAN COORDINATES (ANGSTROEM)
---------------------------------
  Pt    -2.872308    0.147213    0.175460
  N     -0.889900    0.636423    0.536371
  H     -0.770265    1.545345    1.010390
  H     -0.311744    0.657530   -0.318322
  H     -0.492491   -0.089596    1.157849
  N     -3.191907    1.806614   -1.025847
  H     -3.053420    2.702035   -0.531675
  H     -4.175120    1.781342   -1.348122
  H     -2.593363    1.825040   -1.866358
  Cl    -2.480971   -1.718998    1.539698
  Cl    -5.115512   -0.381948   -0.253445

----------------------------
CARTESIAN COORDINATES (A.U.)
----------------------------
  NO LB      ZA    FRAG     MASS         X           Y           Z
   0 Pt   18.0000*   0   195.090   -5.427875    0.278193    0.331572
   1 N     7.0000    0    14.007   -1.681666    1.202666    1.013594
   2 H     1.0000    0     1.008   -1.455590    2.920278    1.909360
   3 H     1.0000    0     1.008   -0.589110    1.242551   -0.601541
   4 H     1.0000    0     1.008   -0.930672   -0.169312    2.188017
   5 N     7.0000    0    14.007   -6.031830    3.414006   -1.938569
   6 H     1.0000    0     1.008   -5.770127    5.106106   -1.004720
   7 H     1.0000    0     1.008   -7.889834    3.366248   -2.547581
   8 H     1.0000    0     1.008   -4.900745    3.448825   -3.526905
   9 Cl   17.0000    0    35.453   -4.688357   -3.248435    2.909608
  10 Cl   17.0000    0    35.453   -9.666917   -0.721778   -0.478942
* core charge reduced due to ECP

--------------------------------
INTERNAL COORDINATES (ANGSTROEM)
--------------------------------
 Pt     0   0   0     0.000000000000     0.00000000     0.00000000
 N      1   0   0     2.073529787106     0.00000000     0.00000000
 H      2   1   0     1.032058413410   113.48748719     0.00000000
 H      2   1   3     1.032089585944   113.34386880   237.26699815
 H      2   1   3     1.035023196271   107.82469038   118.71303793
 N      1   2   3     2.073377361052    93.40498959    60.95134040
 H      6   1   2     1.032066953353   113.34475834   298.68038653
 H      6   1   2     1.034992063907   107.89670020   179.98440540
 H      6   1   2     1.032014102782   113.37648437    61.26562871
 Cl     1   2   3     2.344575277189    85.81020057   240.99513244
 Cl     1   2   3     2.344341564558   179.22258851    67.42371590

---------------------------
INTERNAL COORDINATES (A.U.)
---------------------------
 Pt     0   0   0     0.000000000000     0.00000000     0.00000000
 N      1   0   0     3.918403428158     0.00000000     0.00000000
 H      2   1   0     1.950307755553   113.48748719     0.00000000
 H      2   1   3     1.950366663107   113.34386880   237.26699815
 H      2   1   3     1.955910383207   107.82469038   118.71303793
 N      1   2   3     3.918115384661    93.40498959    60.95134040
 H      6   1   2     1.950323893708   113.34475834   298.68038653
 H      6   1   2     1.955851551567   107.89670020   179.98440540
 H      6   1   2     1.950224020602   113.37648437    61.26562871
 Cl     1   2   3     4.430605174250    85.81020057   240.99513244
 Cl     1   2   3     4.430163521384   179.22258851    67.42371590

---------------------
BASIS SET INFORMATION
---------------------
There are 4 groups of distinct atoms

 Group   1 Type Pt  : 7s6p5d1f contracted to 6s3p2d1f pattern {211111/411/41/1}
 Group   2 Type N   : 7s4p1d contracted to 3s2p1d pattern {511/31/1}
 Group   3 Type H   : 4s1p contracted to 2s1p pattern {31/1}
 Group   4 Type Cl  : 10s7p1d contracted to 4s3p1d pattern {5311/511/1}

Atom   0Pt   basis set group =>   1
Atom   1N    basis set group =>   2
Atom   2H    basis set group =>   3
Atom   3H    basis set group =>   3
Atom   4H    basis set group =>   3
Atom   5N    basis set group =>   2
Atom   6H    basis set group =>   3
Atom   7H    basis set group =>   3
Atom   8H    basis set group =>   3
Atom   9Cl   basis set group =>   4
Atom  10Cl   basis set group =>   4
---------------------------------
AUXILIARY/J BASIS SET INFORMATION
---------------------------------
There are 4 groups of distinct atoms

 Group   1 Type Pt  : 11s5p5d3f3g contracted to 8s5p5d2f3g pattern {41111111/11111/11111/21/111}
 Group   2 Type N   : 12s5p4d2f1g contracted to 6s4p3d1f1g pattern {711111/2111/211/2/1}
 Group   3 Type H   : 5s2p1d contracted to 3s1p1d pattern {311/2/1}
 Group   4 Type Cl  : 14s5p5d2f1g contracted to 8s4p3d1f1g pattern {71111111/2111/311/2/1}

Atom   0Pt   basis set group =>   1
Atom   1N    basis set group =>   2
Atom   2H    basis set group =>   3
Atom   3H    basis set group =>   3
Atom   4H    basis set group =>   3
Atom   5N    basis set group =>   2
Atom   6H    basis set group =>   3
Atom   7H    basis set group =>   3
Atom   8H    basis set group =>   3
Atom   9Cl   basis set group =>   4
Atom  10Cl   basis set group =>   4
-------------------------
ECP PARAMETER INFORMATION
-------------------------

 Group 1, Type Pt ECP Def2-ECP (replacing 60 core electrons, lmax=3)

Atom   0Pt   ECP group =>   1



           ************************************************************
           *        Program running with 8 parallel MPI-processes     *
           *              working on a common directory               *
           ************************************************************
------------------------------------------------------------------------------
                           ORCA GTO INTEGRAL CALCULATION
                           -- RI-GTO INTEGRALS CHOSEN --
------------------------------------------------------------------------------
------------------------------------------------------------------------------
                   ___                                                        
                  /   \      - P O W E R E D   B Y -                         
                 /     \                                                     
                 |  |  |   _    _      __       _____    __    __             
                 |  |  |  | |  | |    /  \     |  _  \  |  |  /  |          
                  \  \/   | |  | |   /    \    | | | |  |  | /  /          
                 / \  \   | |__| |  /  /\  \   | |_| |  |  |/  /          
                |  |  |   |  __  | /  /__\  \  |    /   |      \           
                |  |  |   | |  | | |   __   |  |    \   |  |\   \          
                \     /   | |  | | |  |  |  |  | |\  \  |  | \   \       
                 \___/    |_|  |_| |__|  |__|  |_| \__\ |__|  \__/        
                                                                              
                      - O R C A' S   B I G   F R I E N D -                    
                                      &                                       
                       - I N T E G R A L  F E E D E R -                       
                                                                              
 v1 FN, 2020, v2 2021                                                         
------------------------------------------------------------------------------


Reading SHARK input file orca_freq.SHARKINP.tmp ... ok
----------------------
SHARK INTEGRAL PACKAGE
----------------------

Number of atoms                             ...     11
Number of basis functions                   ...    126
Number of shells                            ...     58
Maximum angular momentum                    ...      3
Integral batch strategy                     ... SHARK/LIBINT Hybrid
RI-J (if used) integral strategy            ... SPLIT-RIJ (Revised 2003 algorithm where possible)
Printlevel                                  ...      1
Contraction scheme used                     ... SEGMENTED contraction
Coulomb Range Separation                    ... NOT USED
Exchange Range Separation                   ... NOT USED
Finite Nucleus Model                        ... NOT USED
Auxiliary Coulomb fitting basis             ... AVAILABLE
   # of basis functions in Aux-J            ...    355
   # of shells in Aux-J                     ...    117
   Maximum angular momentum in Aux-J        ...      4
Auxiliary J/K fitting basis                 ... NOT available
Auxiliary Correlation fitting basis         ... NOT available
Auxiliary 'external' fitting basis          ... NOT available
Integral threshold                          ...     1.000000e-10
Primitive cut-off                           ...     1.000000e-11
Primitive pair pre-selection threshold      ...     1.000000e-11

Calculating pre-screening integrals         ... done (  0.0 sec) Dimension = 58
Organizing shell pair data                  ... done (  0.0 sec)
Shell pair information
Total number of shell pairs                 ...      1711
Shell pairs after pre-screening             ...      1583
Total number of primitive shell pairs       ...      6098
Primitive shell pairs kept                  ...      4181
          la=0 lb=0:    485 shell pairs
          la=1 lb=0:    558 shell pairs
          la=1 lb=1:    170 shell pairs
          la=2 lb=0:    184 shell pairs
          la=2 lb=1:    107 shell pairs
          la=2 lb=2:     21 shell pairs
          la=3 lb=0:     32 shell pairs
          la=3 lb=1:     19 shell pairs
          la=3 lb=2:      6 shell pairs
          la=3 lb=3:      1 shell pairs

Calculating one electron integrals          ... done (  0.0 sec)
Calculating ECP integrals                   ... done (  0.1 sec)
Calculating RI/J V-Matrix + Cholesky decomp.... done (  0.0 sec)
Calculating Nuclear repulsion               ... done (  0.0 sec) ENN=    406.157204078700 Eh

SHARK setup successfully completed in   0.2 seconds

Maximum memory used throughout the entire GTOINT-calculation: 14.5 MB


           ************************************************************
           *        Program running with 8 parallel MPI-processes     *
           *              working on a common directory               *
           ************************************************************
-------------------------------------------------------------------------------
                                 ORCA SCF
-------------------------------------------------------------------------------

------------
SCF SETTINGS
------------
Hamiltonian:
 Density Functional     Method          .... DFT(GTOs)
 Exchange Functional    Exchange        .... B88
   X-Alpha parameter    XAlpha          ....  0.666667
   Becke's b parameter  XBeta           ....  0.004200
 Correlation Functional Correlation     .... P86
 LDA part of GGA corr.  LDAOpt          .... PW91-LDA
 Gradients option       PostSCFGGA      .... off
   Density functional embedding theory  .... OFF
   NL short-range parameter             ....  4.400000
 RI-approximation to the Coulomb term is turned on
   Number of AuxJ basis functions       .... 355


General Settings:
 Integral files         IntName         .... orca_freq
 Hartree-Fock type      HFTyp           .... RHF
 Total Charge           Charge          ....    0
 Multiplicity           Mult            ....    1
 Number of Electrons    NEL             ....   72
 Basis Dimension        Dim             ....  126
 Nuclear Repulsion      ENuc            ....    406.1572040787 Eh

Convergence Acceleration:
 DIIS                   CNVDIIS         .... on
   Start iteration      DIISMaxIt       ....    12
   Startup error        DIISStart       ....  0.200000
   # of expansion vecs  DIISMaxEq       ....     5
   Bias factor          DIISBfac        ....   1.050
   Max. coefficient     DIISMaxC        ....  10.000
 Trust-Rad. Augm. Hess. CNVTRAH         .... auto
   Auto Start mean grad. ratio tolernc. ....  1.125000
   Auto Start start iteration           ....    20
   Auto Start num. interpolation iter.  ....    10
   Max. Number of Micro iterations      ....    16
   Max. Number of Macro iterations      .... Maxiter - #DIIS iter
   Number of Davidson start vectors     ....     2
   Converg. threshold I  (grad. norm)   ....   5.000e-05
   Converg. threshold II (energy diff.) ....   1.000e-06
   Grad. Scal. Fac. for Micro threshold ....   0.100
   Minimum threshold for Micro iter.    ....   0.010
   NR start threshold (gradient norm)   ....   0.001
   Initial trust radius                 ....   0.400
   Minimum AH scaling param. (alpha)    ....   1.000
   Maximum AH scaling param. (alpha)    .... 1000.000
   Orbital update algorithm             .... Taylor
   White noise on init. David. guess    .... on
   Maximum white noise                  ....   0.010
   Quad. conv. algorithm                .... NR
 SOSCF                  CNVSOSCF        .... off
 Level Shifting         CNVShift        .... on
   Level shift para.    LevelShift      ....    0.2500
   Turn off err/grad.   ShiftErr        ....    0.0010
 Zerner damping         CNVZerner       .... off
 Static damping         CNVDamp         .... on
   Fraction old density DampFac         ....    0.7000
   Max. Damping (<1)    DampMax         ....    0.9800
   Min. Damping (>=0)   DampMin         ....    0.0000
   Turn off err/grad.   DampErr         ....    0.1000
 Fernandez-Rico         CNVRico         .... off

SCF Procedure:
 Maximum # iterations   MaxIter         ....   350
 SCF integral mode      SCFMode         .... Direct
   Integral package                     .... SHARK and LIBINT hybrid scheme
 Reset frequency        DirectResetFreq ....    20
 Integral Threshold     Thresh          ....  1.000e-10 Eh
 Primitive CutOff       TCut            ....  1.000e-11 Eh

Convergence Tolerance:
 Convergence Check Mode ConvCheckMode   .... Total+1el-Energy
 Convergence forced     ConvForced      .... 0
 Energy Change          TolE            ....  1.000e-06 Eh
 1-El. energy change                    ....  1.000e-03 Eh
 DIIS Error             TolErr          ....  1.000e-06


Diagonalization of the overlap matrix:
Smallest eigenvalue                        ... 7.502e-03
Time for diagonalization                   ...    0.002 sec
Threshold for overlap eigenvalues          ... 1.000e-08
Number of eigenvalues below threshold      ... 0
Time for construction of square roots      ...    0.002 sec
Total time needed                          ...    0.004 sec

Time for model grid setup =    0.042 sec

------------------------------
INITIAL GUESS: MODEL POTENTIAL
------------------------------
Loading Hartree-Fock densities                     ... done
  calling /usr/local/bin/orca_5.0.3/orca orca_freq_atom78.inp > orca_freq_atom78.out in order to generate an atomic fitting density for atom 0 (Pt with ECP) on-the-fly... 
    atom 0 (Pt), assumed electronic state with S=3: 1s2 2s2 2p6 3s2 3p6 4s2 3d10 4p6 5s2 4d10 5p6 6s2 4f14 5d8           ... done
Calculating cut-offs                               ... done
Initializing the effective Hamiltonian             ... done
Setting up the integral package (SHARK)            ... done
Starting the Coulomb interaction                   ... done (   0.0 sec)
Reading the grid                                   ... done
Mapping shells                                     ... done
Starting the XC term evaluation                    ... done (   0.0 sec)
  promolecular density results
     # of electrons  =    131.999212497
     EX              =   -428.774664127
     EC              =     -7.669963682
     EX+EC           =   -436.444627809
Transforming the Hamiltonian                       ... done (   0.0 sec)
Diagonalizing the Hamiltonian                      ... done (   0.0 sec)
Back transforming the eigenvectors                 ... done (   0.0 sec)
Now organizing SCF variables                       ... done
                      ------------------
                      INITIAL GUESS DONE (   0.4 sec)
                      ------------------
-------------------
DFT GRID GENERATION
-------------------

General Integration Accuracy     IntAcc      ... 4.388
Radial Grid Type                 RadialGrid  ... OptM3 with GC (2021)
Angular Grid (max. ang.)         AngularGrid ... 4 (Lebedev-302)
Angular grid pruning method      GridPruning ... 4 (adaptive)
Weight generation scheme         WeightScheme... Becke
Basis function cutoff            BFCut       ... 1.0000e-10
Integration weight cutoff        WCut        ... 1.0000e-14
Angular grids for H and He will be reduced by one unit
Partially contracted basis set               ... off
Rotationally invariant grid construction     ... off

Total number of grid points                  ...    57604
Total number of batches                      ...      905
Average number of points per batch           ...       63
Average number of grid points per atom       ...     5237
Time for grid setup =    0.244 sec


--------------------
CPCM SOLVATION MODEL
--------------------
CPCM parameters:
  Epsilon                                         ...       9.0800
  Refrac                                          ...       1.4240
  Rsolv                                           ...       1.3000
  Surface type                                    ... GAUSSIAN VDW
  Epsilon function type                           ...         CPCM
Radii:
 Radius for Pt used is    3.9004 Bohr (=   2.0640 Ang.)
 Radius for N  used is    3.5149 Bohr (=   1.8600 Ang.)
 Radius for H  used is    2.4944 Bohr (=   1.3200 Ang.)
 Radius for Cl used is    3.9684 Bohr (=   2.1000 Ang.)
Calculating surface                               ...        done! (  0.0s)
GEPOL surface points                              ...          766
GEPOL Volume                                      ...     942.9372
GEPOL Surface-area                                ...     574.3274
Calculating surface distance matrix               ...        done! (  0.0s)
Performing Cholesky decomposition & store         ...        done! (  0.0s)
Overall time for CPCM initialization              ...                 0.0s
--------------
SCF ITERATIONS
--------------
ITER       Energy         Delta-E        Max-DP      RMS-DP      [F,P]     Damp
               ***  Starting incremental Fock matrix formation  ***
  0  -1152.7417468285   0.000000000000 0.22422076  0.00370442  0.5075407 0.7000
  1  -1152.8200588398  -0.078312011274 0.14564379  0.00241080  0.3488091 0.7000
  2  -1152.8481461706  -0.028087330815 0.08828963  0.00127843  0.2391268 0.7000
                               ***Turning on DIIS***
  3  -1152.8658199700  -0.017673799374 0.05820477  0.00077438  0.1656039 0.7000
  4  -1152.8787219286  -0.012901958640 0.04225916  0.00050435  0.1155202 0.7000
  5  -1152.8876592219  -0.008937293273 0.09598540  0.00110798  0.0806388 0.0000
  6  -1152.9084622664  -0.020803044474 0.00642161  0.00014262  0.0020561 0.0000
  7  -1152.9084779695  -0.000015703117 0.00129220  0.00003681  0.0010855 0.0000
  8  -1152.9084872539  -0.000009284450 0.00085673  0.00003364  0.0004439 0.0000
  9  -1152.9084886973  -0.000001443359 0.00028694  0.00000793  0.0001286 0.0000
 10  -1152.9084887654  -0.000000068073 0.00017458  0.00000413  0.0001105 0.0000
 11  -1152.9084888132  -0.000000047782 0.00004913  0.00000129  0.0000367 0.0000
                 **** Energy Check signals convergence ****

               *****************************************************
               *                     SUCCESS                       *
               *           SCF CONVERGED AFTER  12 CYCLES          *
               *****************************************************


----------------
TOTAL SCF ENERGY
----------------

Total Energy       :        -1152.90848882 Eh          -31372.23491 eV

Components:
Nuclear Repulsion  :          406.15720408 Eh           11052.09940 eV
Electronic Energy  :        -1559.06569289 Eh          -42424.33432 eV
One Electron Energy:        -2444.06347575 Eh          -66506.34829 eV
Two Electron Energy:          884.99778286 Eh           24082.01398 eV
CPCM Dielectric    :           -0.05604662 Eh              -1.52511 eV

Virial components:
Potential Energy   :        -2222.95068879 Eh          -60489.56347 eV
Kinetic Energy     :         1070.04219998 Eh           29117.32856 eV
Virial Ratio       :            2.07744208


DFT components:
N(Alpha)           :       36.000017819990 electrons
N(Beta)            :       36.000017819990 electrons
N(Total)           :       72.000035639979 electrons
E(X)               :      -81.401134686874 Eh       
E(C)               :       -3.060577735185 Eh       
E(XC)              :      -84.461712422059 Eh       
DFET-embed. en.    :        0.000000000000 Eh       
CPCM Solvation Model Properties:
Surface-charge          :           -0.01863470
Charge-correction       :            0.00016794 Eh               0.00457 eV
Free-energy (cav+disp)  :  This term is not implemented in the current solvation scheme

---------------
SCF CONVERGENCE
---------------

  Last Energy change         ...   -2.1528e-09  Tolerance :   1.0000e-06
  Last MAX-Density change    ...    4.7291e-06  Tolerance :   1.0000e-05
  Last RMS-Density change    ...    1.6949e-07  Tolerance :   1.0000e-06
  Last DIIS Error            ...    4.3655e-06  Tolerance :   1.0000e-06

             **** THE GBW FILE WAS UPDATED (orca_freq.gbw) ****
             **** DENSITY orca_freq.scfp WAS UPDATED ****
             **** ENERGY FILE WAS UPDATED (orca_freq.en.tmp) ****
             **** THE GBW FILE WAS UPDATED (orca_freq.gbw) ****
             **** DENSITY orca_freq.scfp WAS UPDATED ****
----------------
ORBITAL ENERGIES
----------------

  NO   OCC          E(Eh)            E(eV) 
   0   2.0000    -100.645784     -2738.7110 
   1   2.0000    -100.645753     -2738.7102 
   2   2.0000     -14.076825      -383.0499 
   3   2.0000     -14.076742      -383.0476 
   4   2.0000      -9.127781      -248.3796 
   5   2.0000      -9.127762      -248.3790 
   6   2.0000      -6.955876      -189.2790 
   7   2.0000      -6.955863      -189.2786 
   8   2.0000      -6.949067      -189.0937 
   9   2.0000      -6.949046      -189.0932 
  10   2.0000      -6.949026      -189.0926 
  11   2.0000      -6.949002      -189.0920 
  12   2.0000      -3.785747      -103.0154 
  13   2.0000      -2.079577       -56.5882 
  14   2.0000      -2.076567       -56.5063 
  15   2.0000      -2.036125       -55.4058 
  16   2.0000      -0.830143       -22.5893 
  17   2.0000      -0.824585       -22.4381 
  18   2.0000      -0.685157       -18.6441 
  19   2.0000      -0.678886       -18.4734 
  20   2.0000      -0.477788       -13.0013 
  21   2.0000      -0.471888       -12.8407 
  22   2.0000      -0.466184       -12.6855 
  23   2.0000      -0.461509       -12.5583 
  24   2.0000      -0.398098       -10.8328 
  25   2.0000      -0.394656       -10.7391 
  26   2.0000      -0.293218        -7.9789 
  27   2.0000      -0.290534        -7.9058 
  28   2.0000      -0.278677        -7.5832 
  29   2.0000      -0.267905        -7.2901 
  30   2.0000      -0.264875        -7.2076 
  31   2.0000      -0.228479        -6.2172 
  32   2.0000      -0.207283        -5.6405 
  33   2.0000      -0.202989        -5.5236 
  34   2.0000      -0.197046        -5.3619 
  35   2.0000      -0.192102        -5.2274 
  36   0.0000      -0.075625        -2.0579 
  37   0.0000       0.000161         0.0044 
  38   0.0000       0.017099         0.4653 
  39   0.0000       0.042849         1.1660 
  40   0.0000       0.061245         1.6666 
  41   0.0000       0.085634         2.3302 
  42   0.0000       0.091848         2.4993 
  43   0.0000       0.108615         2.9556 
  44   0.0000       0.119405         3.2492 
  45   0.0000       0.131116         3.5679 
  46   0.0000       0.146048         3.9742 
  47   0.0000       0.175657         4.7799 
  48   0.0000       0.317955         8.6520 
  49   0.0000       0.344534         9.3752 
  50   0.0000       0.348405         9.4806 
  51   0.0000       0.436355        11.8738 
  52   0.0000       0.497741        13.5442 
  53   0.0000       0.499134        13.5821 
  54   0.0000       0.503787        13.7087 
  55   0.0000       0.521851        14.2003 
  56   0.0000       0.538375        14.6499 
  57   0.0000       0.549703        14.9582 
  58   0.0000       0.554015        15.0755 
  59   0.0000       0.574968        15.6457 
  60   0.0000       0.619198        16.8492 
  61   0.0000       0.620677        16.8895 
  62   0.0000       0.668736        18.1972 
  63   0.0000       0.686029        18.6678 
  64   0.0000       0.721386        19.6299 
  65   0.0000       0.739038        20.1102 
  66   0.0000       0.752455        20.4753 
  67   0.0000       0.766293        20.8519 
  68   0.0000       0.771234        20.9863 
  69   0.0000       0.780042        21.2260 
  70   0.0000       0.786203        21.3937 
  71   0.0000       0.792930        21.5767 
  72   0.0000       0.809527        22.0283 
  73   0.0000       0.816263        22.2117 
  74   0.0000       0.825439        22.4613 
  75   0.0000       0.830131        22.5890 
  76   0.0000       0.838597        22.8194 
  77   0.0000       0.851498        23.1704 
  78   0.0000       0.855053        23.2672 
  79   0.0000       0.917635        24.9701 
  80   0.0000       0.955230        25.9931 
  81   0.0000       0.956816        26.0363 
  82   0.0000       0.959535        26.1103 
  83   0.0000       1.066757        29.0279 
  84   0.0000       1.115444        30.3528 
  85   0.0000       1.150652        31.3108 
  86   0.0000       1.193481        32.4763 
  87   0.0000       1.229414        33.4540 
  88   0.0000       1.279055        34.8049 
  89   0.0000       1.280699        34.8496 
  90   0.0000       1.326445        36.0944 
  91   0.0000       1.330228        36.1974 
  92   0.0000       1.382161        37.6105 
  93   0.0000       1.418627        38.6028 
  94   0.0000       1.421002        38.6674 
  95   0.0000       1.438470        39.1428 
  96   0.0000       1.438792        39.1515 
  97   0.0000       1.484632        40.3989 
  98   0.0000       1.484794        40.4033 
  99   0.0000       1.517167        41.2842 
 100   0.0000       1.522016        41.4162 
 101   0.0000       1.813329        49.3432 
 102   0.0000       1.828740        49.7625 
 103   0.0000       1.869352        50.8677 
 104   0.0000       1.894533        51.5529 
 105   0.0000       1.961111        53.3646 
 106   0.0000       1.966522        53.5118 
 107   0.0000       1.972278        53.6684 
 108   0.0000       1.974624        53.7323 
 109   0.0000       2.064067        56.1661 
 110   0.0000       2.118745        57.6540 
 111   0.0000       2.316924        63.0467 
 112   0.0000       2.335734        63.5586 
 113   0.0000       2.395018        65.1717 
 114   0.0000       2.634439        71.6867 
 115   0.0000       2.636917        71.7542 
 116   0.0000       2.638257        71.7906 
 117   0.0000       2.659347        72.3645 
 118   0.0000       2.789842        75.9155 
 119   0.0000       2.798432        76.1492 
 120   0.0000       3.158212        85.9393 
 121   0.0000       3.163299        86.0777 
 122   0.0000       3.207529        87.2813 
 123   0.0000       3.244263        88.2809 
 124   0.0000      51.083017      1390.0396 
 125   0.0000     282.884577      7697.6807 

                    ********************************
                    * MULLIKEN POPULATION ANALYSIS *
                    ********************************

-----------------------
MULLIKEN ATOMIC CHARGES
-----------------------
   0 Pt:   -0.155147
   1 N :   -0.150939
   2 H :    0.202920
   3 H :    0.202993
   4 H :    0.175371
   5 N :   -0.150980
   6 H :    0.203066
   7 H :    0.175427
   8 H :    0.203007
   9 Cl:   -0.352823
  10 Cl:   -0.352894
Sum of atomic charges:   -0.0000000

--------------------------------
MULLIKEN REDUCED ORBITAL CHARGES
--------------------------------
  0 Pts       :     2.859283  s :     2.859283
      pz      :     2.141466  p :     6.433311
      px      :     2.138508
      py      :     2.153337
      dz2     :     1.895434  d :     8.838216
      dxz     :     1.972665
      dyz     :     1.643621
      dx2y2   :     1.449261
      dxy     :     1.877235
      f0      :     0.002284  f :     0.024337
      f+1     :     0.002522
      f-1     :     0.002422
      f+2     :     0.005692
      f-2     :     0.002160
      f+3     :     0.004698
      f-3     :     0.004559
  1 N s       :     3.376677  s :     3.376677
      pz      :     1.180903  p :     3.759110
      px      :     1.398389
      py      :     1.179818
      dz2     :     0.000837  d :     0.015153
      dxz     :     0.005394
      dyz     :     0.003344
      dx2y2   :     0.002627
      dxy     :     0.002950
  2 H s       :     0.755056  s :     0.755056
      pz      :     0.012100  p :     0.042024
      px      :     0.008874
      py      :     0.021050
  3 H s       :     0.754969  s :     0.754969
      pz      :     0.020731  p :     0.042038
      px      :     0.012386
      py      :     0.008921
  4 H s       :     0.781561  s :     0.781561
      pz      :     0.014608  p :     0.043069
      px      :     0.009818
      py      :     0.018644
  5 N s       :     3.376573  s :     3.376573
      pz      :     1.253470  p :     3.759252
      px      :     1.186355
      py      :     1.319426
      dz2     :     0.002985  d :     0.015154
      dxz     :     0.004065
      dyz     :     0.002184
      dx2y2   :     0.004788
      dxy     :     0.001133
  6 H s       :     0.754903  s :     0.754903
      pz      :     0.013674  p :     0.042030
      px      :     0.009289
      py      :     0.019068
  7 H s       :     0.781519  s :     0.781519
      pz      :     0.009510  p :     0.043054
      px      :     0.024425
      py      :     0.009119
  8 H s       :     0.754953  s :     0.754953
      pz      :     0.018278  p :     0.042040
      px      :     0.014795
      py      :     0.008967
  9 Cls       :     5.935083  s :     5.935083
      pz      :     3.797648  p :    11.400373
      px      :     3.897637
      py      :     3.705088
      dz2     :     0.003629  d :     0.017367
      dxz     :     0.001914
      dyz     :     0.005127
      dx2y2   :     0.003578
      dxy     :     0.003119
 10 Cls       :     5.935092  s :     5.935092
      pz      :     3.900520  p :    11.400424
      px      :     3.598766
      py      :     3.901138
      dz2     :     0.002098  d :     0.017379
      dxz     :     0.004804
      dyz     :     0.000726
      dx2y2   :     0.004757
      dxy     :     0.004993


                     *******************************
                     * LOEWDIN POPULATION ANALYSIS *
                     *******************************

----------------------
LOEWDIN ATOMIC CHARGES
----------------------
   0 Pt:   -0.790056
   1 N :    0.122512
   2 H :    0.129125
   3 H :    0.129173
   4 H :    0.110025
   5 N :    0.122587
   6 H :    0.129207
   7 H :    0.110040
   8 H :    0.129137
   9 Cl:   -0.095922
  10 Cl:   -0.095828

-------------------------------
LOEWDIN REDUCED ORBITAL CHARGES
-------------------------------
  0 Pts       :     2.768775  s :     2.768775
      pz      :     2.206348  p :     6.728784
      px      :     2.271706
      py      :     2.250730
      dz2     :     1.950679  d :     9.250068
      dxz     :     2.026905
      dyz     :     1.744673
      dx2y2   :     1.579641
      dxy     :     1.948171
      f0      :     0.003965  f :     0.042428
      f+1     :     0.004577
      f-1     :     0.003893
      f+2     :     0.010317
      f-2     :     0.003417
      f+3     :     0.008335
      f-3     :     0.007924
  1 N s       :     3.059088  s :     3.059088
      pz      :     1.196177  p :     3.780440
      px      :     1.386854
      py      :     1.197409
      dz2     :     0.002992  d :     0.037959
      dxz     :     0.012043
      dyz     :     0.009664
      dx2y2   :     0.007387
      dxy     :     0.005874
  2 H s       :     0.758374  s :     0.758374
      pz      :     0.028893  p :     0.112502
      px      :     0.027201
      py      :     0.056408
  3 H s       :     0.758320  s :     0.758320
      pz      :     0.052883  p :     0.112507
      px      :     0.041114
      py      :     0.018511
  4 H s       :     0.773562  s :     0.773562
      pz      :     0.037139  p :     0.116413
      px      :     0.033194
      py      :     0.046081
  5 N s       :     3.058989  s :     3.058989
      pz      :     1.259492  p :     3.780457
      px      :     1.201810
      py      :     1.319155
      dz2     :     0.006347  d :     0.037967
      dxz     :     0.010544
      dyz     :     0.006448
      dx2y2   :     0.012614
      dxy     :     0.002013
  6 H s       :     0.758280  s :     0.758280
      pz      :     0.033390  p :     0.112513
      px      :     0.019602
      py      :     0.059522
  7 H s       :     0.773567  s :     0.773567
      pz      :     0.025254  p :     0.116393
      px      :     0.067115
      py      :     0.024024
  8 H s       :     0.758330  s :     0.758330
      pz      :     0.053167  p :     0.112534
      px      :     0.035521
      py      :     0.023846
  9 Cls       :     5.759964  s :     5.759964
      pz      :     3.769498  p :    11.316739
      px      :     3.865823
      py      :     3.681417
      dz2     :     0.003935  d :     0.019220
      dxz     :     0.002162
      dyz     :     0.005657
      dx2y2   :     0.004092
      dxy     :     0.003374
 10 Cls       :     5.759900  s :     5.759900
      pz      :     3.865175  p :    11.316693
      px      :     3.587696
      py      :     3.863822
      dz2     :     0.002315  d :     0.019235
      dxz     :     0.005300
      dyz     :     0.000751
      dx2y2   :     0.005206
      dxy     :     0.005664


                      *****************************
                      * MAYER POPULATION ANALYSIS *
                      *****************************

  NA   - Mulliken gross atomic population
  ZA   - Total nuclear charge
  QA   - Mulliken gross atomic charge
  VA   - Mayer's total valence
  BVA  - Mayer's bonded valence
  FA   - Mayer's free valence

  ATOM       NA         ZA         QA         VA         BVA        FA
  0 Pt    18.1551    18.0000    -0.1551     3.0542     3.0542    -0.0000
  1 N      7.1509     7.0000    -0.1509     3.5191     3.5191    -0.0000
  2 H      0.7971     1.0000     0.2029     0.9460     0.9460    -0.0000
  3 H      0.7970     1.0000     0.2030     0.9459     0.9459    -0.0000
  4 H      0.8246     1.0000     0.1754     0.9978     0.9978    -0.0000
  5 N      7.1510     7.0000    -0.1510     3.5192     3.5192    -0.0000
  6 H      0.7969     1.0000     0.2031     0.9459     0.9459    -0.0000
  7 H      0.8246     1.0000     0.1754     0.9977     0.9977    -0.0000
  8 H      0.7970     1.0000     0.2030     0.9459     0.9459    -0.0000
  9 Cl    17.3528    17.0000    -0.3528     1.0916     1.0916    -0.0000
 10 Cl    17.3529    17.0000    -0.3529     1.0915     1.0915    -0.0000

  Mayer bond orders larger than 0.100000
B(  0-Pt,  1-N ) :   0.6052 B(  0-Pt,  5-N ) :   0.6053 B(  0-Pt,  9-Cl) :   0.9025 
B(  0-Pt, 10-Cl) :   0.9026 B(  1-N ,  2-H ) :   0.9362 B(  1-N ,  3-H ) :   0.9362 
B(  1-N ,  4-H ) :   0.9184 B(  1-N , 10-Cl) :   0.1128 B(  5-N ,  6-H ) :   0.9362 
B(  5-N ,  7-H ) :   0.9184 B(  5-N ,  8-H ) :   0.9362 B(  5-N ,  9-Cl) :   0.1129 


-------
TIMINGS
-------

Total SCF time: 0 days 0 hours 0 min 2 sec 

Total time                  ....       2.612 sec
Sum of individual times     ....       2.512 sec  ( 96.2%)

Fock matrix formation       ....       1.829 sec  ( 70.0%)
  Split-RI-J                ....       0.251 sec  ( 13.7% of F)
  XC integration            ....       0.588 sec  ( 32.1% of F)
    Basis function eval.    ....       0.138 sec  ( 23.4% of XC)
    Density eval.           ....       0.099 sec  ( 16.8% of XC)
    XC-Functional eval.     ....       0.038 sec  (  6.4% of XC)
    XC-Potential eval.      ....       0.083 sec  ( 14.1% of XC)
Diagonalization             ....       0.033 sec  (  1.3%)
Density matrix formation    ....       0.001 sec  (  0.1%)
Population analysis         ....       0.003 sec  (  0.1%)
Initial guess               ....       0.329 sec  ( 12.6%)
Orbital Transformation      ....       0.000 sec  (  0.0%)
Orbital Orthonormalization  ....       0.000 sec  (  0.0%)
DIIS solution               ....       0.031 sec  (  1.2%)
Grid generation             ....       0.285 sec  ( 10.9%)

Maximum memory used throughout the entire SCF-calculation: 18.8 MB


-------------------------------------------------------------------------------
                          DFT DISPERSION CORRECTION                            
                                                                               
                              DFTD3 V3.1  Rev 1                                
                          USING Becke-Johnson damping                          
-------------------------------------------------------------------------------
The BP86 functional is recognized
Active option DFTDOPT                   ...         4   

molecular C6(AA) [au] = 3120.705598 


            DFT-D V3
 parameters
 s6 scaling factor         :     1.0000 
 a1 scaling factor         :     0.3946 
 s8 scaling factor         :     3.2822 
 a2 scaling factor         :     4.8516 
 ad hoc parameters k1-k3   :    16.0000     1.3333    -4.0000 

 Edisp/kcal,au: -13.199965877956  -0.021035482356 
 E6   /kcal   :  -4.073154582 
 E8   /kcal   :  -9.126811296 
 % E8         :  69.142688551 

-------------------------   ----------------
Dispersion correction           -0.021035482
-------------------------   ----------------


-------------------------   --------------------
FINAL SINGLE POINT ENERGY     -1152.929524297671
-------------------------   --------------------


                            ***************************************
                            *     ORCA property calculations      *
                            ***************************************

                                    ---------------------
                                    Active property flags
                                    ---------------------
   (+) Dipole Moment


------------------------------------------------------------------------------
                       ORCA ELECTRIC PROPERTIES CALCULATION
------------------------------------------------------------------------------

Dipole Moment Calculation                       ... on
Quadrupole Moment Calculation                   ... off
Polarizability Calculation                      ... off
GBWName                                         ... orca_freq.gbw
Electron density                                ... orca_freq.scfp
The origin for moment calculation is the CENTER OF MASS  = (-5.657616, -0.019248  0.447556)

-------------
DIPOLE MOMENT
-------------
                                X             Y             Z
Electronic contribution:     13.26976      17.19249      -6.69769
Nuclear contribution   :     -9.92358     -12.86888       5.00742
                        -----------------------------------------
Total Dipole Moment    :      3.34617       4.32360      -1.69026
                        -----------------------------------------
Magnitude (a.u.)       :      5.72254
Magnitude (Debye)      :     14.54553



--------------------
Rotational spectrum 
--------------------
 
Rotational constants in cm-1:     0.069421     0.056364     0.031430 
Rotational constants in MHz :  2081.196136  1689.742509   942.261550 

 Dipole components along the rotational axes: 
x,y,z [a.u.] :    -0.000413     5.722537    -0.001439 
x,y,z [Debye]:    -0.001050    14.545533    -0.003659 

 


           ************************************************************
           *        Program running with 8 parallel MPI-processes     *
           *              working on a common directory               *
           ************************************************************

-------------------------------------------------------------------------------
                               ORCA SCF HESSIAN
-------------------------------------------------------------------------------

                   --------- SHARK INITIALIZATION DONE ---------

Hessian of the Kohn-Sham DFT energy:
Kohn-Sham wavefunction type                      ... RKS
Hartree-Fock exchange scaling                    ...    0.000
Number of operators                              ...    1
Number of atoms                                  ...   11
Basis set dimensions                             ...  126
Integral neglect threshold                       ... 1.0e-10
Integral primitive cutoff                        ... 1.0e-11

Setting up DFT Hessian calculations              ... 

HESS GRID
---------

General Integration Accuracy     IntAcc      ... 4.629
Radial Grid Type                 RadialGrid  ... OptM3 with GC (2021)
Angular Grid (max. ang.)         AngularGrid ... 5 (Lebedev-434)
Angular grid pruning method      GridPruning ... 4 (adaptive)
Weight generation scheme         WeightScheme... Becke
Basis function cutoff            BFCut       ... 1.0000e-10
Integration weight cutoff        WCut        ... 1.0000e-14
Angular grids for H and He will be reduced by one unit
Partially contracted basis set               ... off
Rotationally invariant grid construction     ... off

Total number of grid points                  ...    86484
Total number of batches                      ...     1359
Average number of points per batch           ...       63
Average number of grid points per atom       ...     7862

Building densities                               ... done   (      0.0 sec)
Calculating rho(r) on the grid                   ... done   (      0.0 sec)
Building xc-kernel on the grid                   ... done   (      0.0 sec)
                                                     done   (      0.6 sec)

Nuclear repulsion Hessian  (SHARK)               ... done   (      0.0 sec)

----------------------------------------------
Forming right-hand sides of CP-SCF equations     ...
----------------------------------------------
One electron integral derivatives  (SHARK)       ... done   (      0.0 sec)
C-PCM contribution to the Fock matrix derivative ... done   (      1.0 sec)
Transforming the overlap derivative matrices     ... done   (      0.5 sec)
Adding tr(S(x)F(y) C-PCM term to the hessian     ... done   (      0.0 sec)
Making the Q(x) pseudodensities                  ... done   (      0.0 sec)
Adding the E*S(x)*S(y) terms to the Hessian      ... done   (      0.0 sec)
Calculating energy weighted overlap derivatives  ... done   (      0.0 sec)
F(y): ECP integral derivatives                   ... done   (      0.6 sec)
Two electron integral derivatives (SHARK-RI)     ... done   (      0.5 sec)
Exchange-correlation integral derivatives        ... done   (      3.2 sec)
tr(F(y)Q(x)) contribution to the Hessian         ... done   (      0.0 sec)
Response fock operator R(S(x)) (SHARK-RI)        ... done   (      0.3 sec)
XC Response fock operator R(S(x))                ... done   (      1.0 sec)
tr(F(y)S(x)) contribution to the Hessian         ... done   (      0.0 sec)
Transforming and finalizing RHSs                 ... done   (      0.0 sec)

----------------------------------------------
Solving the CP-SCF equations (RI)                ...
----------------------------------------------
     CP-SCF ITERATION   0:   1.6828e-01 (   0.7 sec   0/ 33 done)
     CP-SCF ITERATION   1:   2.8882e-02 (   0.8 sec   0/ 33 done)
     CP-SCF ITERATION   2:   9.5168e-03 (   0.8 sec   1/ 33 done)
     CP-SCF ITERATION   3:   2.7888e-03 (   0.9 sec  11/ 33 done)
     CP-SCF ITERATION   4:   6.7244e-04 (   0.7 sec  33/ 33 done)
                    *** THE CP-SCF HAS CONVERGED ***

                                                 ... done   (      4.0 sec)
Forming perturbed density Hessian contributions  ... done   (      0.0 sec)
Calculating [Q*(d^2 A/dXdY)*Q  ] C-PCM term      ... done   (      0.0 sec)
Calculating [d^2(V_N)/(dXdY)*Q ] C-PCM term      ... done   (      0.0 sec)
Calculating [d^2(V_el)/(dXdY)*Q] C-PCM term      ... done   (      0.2 sec)
Calculating C-PCM term that depends on dQ/dX     ... done   (      0.1 sec)
2nd integral derivative contribs (SHARK-RI)      ... done   (      0.8 sec)
Exchange-correlation Hessian                     ... done   (      2.8 sec)
ECP integral 2nd derivatives                     ... done   (      2.5 sec)
Dispersion correction in the Hessian             ... done   (      0.3 sec)
Dipole derivatives                               ... (center of mass: -5.657616, -0.019248  0.447556)done   (      0.2 sec)

Total SCF Hessian time: 0 days 0 hours 0 min 19 sec 

Writing the Hessian file to the disk             ... done


Maximum memory used throughout the entire SCFHESS-calculation: 75.5 MB

-----------------------
VIBRATIONAL FREQUENCIES
-----------------------

Scaling factor for frequencies =  1.000000000  (already applied!)

   0:         0.00 cm**-1
   1:         0.00 cm**-1
   2:         0.00 cm**-1
   3:         0.00 cm**-1
   4:         0.00 cm**-1
   5:         0.00 cm**-1
   6:       124.98 cm**-1
   7:       139.18 cm**-1
   8:       157.50 cm**-1
   9:       160.09 cm**-1
  10:       164.09 cm**-1
  11:       191.67 cm**-1
  12:       201.69 cm**-1
  13:       314.05 cm**-1
  14:       322.92 cm**-1
  15:       472.35 cm**-1
  16:       480.30 cm**-1
  17:       739.83 cm**-1
  18:       747.63 cm**-1
  19:       748.73 cm**-1
  20:       768.53 cm**-1
  21:      1225.95 cm**-1
  22:      1232.16 cm**-1
  23:      1538.65 cm**-1
  24:      1542.89 cm**-1
  25:      1555.55 cm**-1
  26:      1560.43 cm**-1
  27:      3326.46 cm**-1
  28:      3327.19 cm**-1
  29:      3429.87 cm**-1
  30:      3430.42 cm**-1
  31:      3458.79 cm**-1
  32:      3459.08 cm**-1


------------
NORMAL MODES
------------

These modes are the Cartesian displacements weighted by the diagonal matrix
M(i,i)=1/sqrt(m[i]) where m[i] is the mass of the displaced atom
Thus, these vectors are normalized but *not* orthogonal

                  0          1          2          3          4          5    
      0       0.000000   0.000000   0.000000   0.000000   0.000000   0.000000
      1       0.000000   0.000000   0.000000   0.000000   0.000000   0.000000
      2       0.000000   0.000000   0.000000   0.000000   0.000000   0.000000
      3       0.000000   0.000000   0.000000   0.000000   0.000000   0.000000
      4       0.000000   0.000000   0.000000   0.000000   0.000000   0.000000
      5       0.000000   0.000000   0.000000   0.000000   0.000000   0.000000
      6       0.000000   0.000000   0.000000   0.000000   0.000000   0.000000
      7       0.000000   0.000000   0.000000   0.000000   0.000000   0.000000
      8       0.000000   0.000000   0.000000   0.000000   0.000000   0.000000
      9       0.000000   0.000000   0.000000   0.000000   0.000000   0.000000
     10       0.000000   0.000000   0.000000   0.000000   0.000000   0.000000
     11       0.000000   0.000000   0.000000   0.000000   0.000000   0.000000
     12       0.000000   0.000000   0.000000   0.000000   0.000000   0.000000
     13       0.000000   0.000000   0.000000   0.000000   0.000000   0.000000
     14       0.000000   0.000000   0.000000   0.000000   0.000000   0.000000
     15       0.000000   0.000000   0.000000   0.000000   0.000000   0.000000
     16       0.000000   0.000000   0.000000   0.000000   0.000000   0.000000
     17       0.000000   0.000000   0.000000   0.000000   0.000000   0.000000
     18       0.000000   0.000000   0.000000   0.000000   0.000000   0.000000
     19       0.000000   0.000000   0.000000   0.000000   0.000000   0.000000
     20       0.000000   0.000000   0.000000   0.000000   0.000000   0.000000
     21       0.000000   0.000000   0.000000   0.000000   0.000000   0.000000
     22       0.000000   0.000000   0.000000   0.000000   0.000000   0.000000
     23       0.000000   0.000000   0.000000   0.000000   0.000000   0.000000
     24       0.000000   0.000000   0.000000   0.000000   0.000000   0.000000
     25       0.000000   0.000000   0.000000   0.000000   0.000000   0.000000
     26       0.000000   0.000000   0.000000   0.000000   0.000000   0.000000
     27       0.000000   0.000000   0.000000   0.000000   0.000000   0.000000
     28       0.000000   0.000000   0.000000   0.000000   0.000000   0.000000
     29       0.000000   0.000000   0.000000   0.000000   0.000000   0.000000
     30       0.000000   0.000000   0.000000   0.000000   0.000000   0.000000
     31       0.000000   0.000000   0.000000   0.000000   0.000000   0.000000
     32       0.000000   0.000000   0.000000   0.000000   0.000000   0.000000
                  6          7          8          9         10         11    
      0       0.000237   0.066082  -0.013094  -0.005959  -0.004381   0.036485
      1       0.002757   0.080543   0.025395   0.009447   0.010012  -0.019023
      2       0.001032  -0.033428   0.037635   0.014419   0.015328   0.025514
      3      -0.061014   0.091854   0.045347   0.003095   0.013476   0.005426
      4       0.118444   0.074745  -0.084685  -0.010055  -0.023964   0.204893
      5       0.183433  -0.045564  -0.133536  -0.010048  -0.036268  -0.129957
      6      -0.223086   0.125641   0.123573   0.078520   0.088857  -0.104579
      7       0.023656   0.127926  -0.297952   0.195962   0.082187   0.260824
      8       0.407160  -0.156438   0.257025  -0.425991  -0.259791  -0.208533
      9       0.009781   0.108009  -0.132796   0.064579   0.015985  -0.099743
     10       0.396635  -0.042392   0.319288  -0.478193  -0.282581   0.257852
     11       0.238851  -0.037891  -0.243182   0.018806  -0.041521  -0.200280
     12      -0.020299   0.098625   0.184057  -0.117390  -0.043550   0.235029
     13       0.029814   0.157964  -0.352344   0.221424   0.090722   0.335800
     14       0.053829   0.039241  -0.535237   0.337709   0.134195  -0.130350
     15       0.067697   0.036313   0.037631   0.026133  -0.000271  -0.221978
     16      -0.124631   0.114905  -0.062274  -0.040505  -0.014435  -0.096326
     17      -0.193644  -0.013905  -0.096182  -0.063108  -0.019684  -0.021080
     18       0.241675  -0.027396  -0.099727  -0.287512   0.486325  -0.368807
     19      -0.043896   0.108139  -0.015800  -0.019123   0.019298  -0.040562
     20      -0.389476   0.016443  -0.141596  -0.012693  -0.219191  -0.081634
     21       0.033058   0.057718   0.088740   0.122212  -0.136016  -0.252139
     22      -0.057313   0.108791  -0.154161  -0.216186   0.234019  -0.342045
     23      -0.093008  -0.063298  -0.244823  -0.342343   0.374745   0.078050
     24      -0.016321   0.061373   0.164382   0.269616  -0.342039  -0.299166
     25      -0.376683   0.186861  -0.082719   0.081329  -0.336564  -0.022819
     26      -0.259572   0.005704  -0.006310   0.113654  -0.271291  -0.073852
     27       0.020559  -0.606325   0.008730   0.018806   0.004706  -0.104280
     28      -0.056807  -0.065436  -0.023486  -0.026636  -0.013440  -0.056894
     29      -0.087752  -0.148366  -0.034710  -0.041404  -0.019514  -0.001827
     30      -0.025211   0.179998   0.021209  -0.001258   0.012207   0.014356
     31       0.044872  -0.471108  -0.041597   0.000732  -0.020996   0.105914
     32       0.087308   0.361386  -0.055641  -0.000198  -0.034684  -0.061365
                 12         13         14         15         16         17    
      0       0.016022  -0.125025  -0.109937   0.029186  -0.021215   0.000532
      1       0.020868   0.070030  -0.133601  -0.014352  -0.027898  -0.000287
      2      -0.007848  -0.090056   0.050339   0.019523   0.011136  -0.000092
      3       0.049151  -0.038369  -0.006905  -0.339182   0.331771   0.018869
      4      -0.208181   0.031664  -0.026637  -0.096105   0.077763  -0.036648
      5       0.151049  -0.031872   0.013785  -0.053744   0.062446  -0.060146
      6       0.149806   0.035973  -0.030068  -0.387206   0.305525  -0.445337
      7      -0.261786   0.003936  -0.013395  -0.070972   0.089006  -0.023918
      8       0.226339  -0.001057  -0.010428  -0.085756   0.043607   0.031293
      9       0.145493   0.033458  -0.034527  -0.386307   0.306758   0.391471
     10      -0.249158   0.002499  -0.002761  -0.070843   0.094352   0.160740
     11       0.216307   0.017904  -0.001668  -0.087278   0.048078   0.195917
     12      -0.160349  -0.141531   0.083933  -0.236841   0.376588  -0.066533
     13      -0.330836  -0.015525   0.021894  -0.045278   0.107339   0.084295
     14       0.146907  -0.028485   0.010717  -0.052640   0.057953   0.136334
     15      -0.250819  -0.048979  -0.026224  -0.037470  -0.057550  -0.028089
     16      -0.054257   0.015889  -0.015450   0.281874   0.284224   0.041067
     17      -0.051926  -0.025588  -0.000227  -0.198534  -0.207138   0.062924
     18      -0.374065   0.009637   0.012018  -0.087663  -0.033487  -0.031373
     19      -0.003681  -0.020315  -0.031616   0.305576   0.269852   0.290578
     20      -0.110903   0.027090   0.014066  -0.231204  -0.191844  -0.386476
     21      -0.282157  -0.038511  -0.009408  -0.050929  -0.044711   0.053370
     22      -0.275417   0.106230   0.080690   0.181643   0.325675  -0.067511
     23       0.051509  -0.078169  -0.056165  -0.136154  -0.228920  -0.175680
     24      -0.332451   0.010158   0.005610  -0.088761  -0.036181   0.141910
     25       0.012298  -0.029426  -0.026987   0.307891   0.276650  -0.466220
     26      -0.107397   0.013461   0.024685  -0.232294  -0.189830   0.173821
     27       0.000092   0.098533  -0.054007   0.004569   0.008056  -0.001179
     28       0.014173  -0.561915   0.543410  -0.014448  -0.019608   0.001564
     29      -0.009224   0.404644  -0.377059   0.011092   0.015724   0.002413
     30       0.015693   0.626544   0.671272   0.018829  -0.024519   0.000658
     31       0.006198   0.156423   0.207601   0.002739  -0.002953  -0.001102
     32       0.001227   0.115019   0.095232   0.004614  -0.006730  -0.002300
                 18         19         20         21         22         23    
      0       0.006037  -0.003169  -0.003553   0.000229   0.000101  -0.000362
      1      -0.005200  -0.000487  -0.004605  -0.000132   0.000098   0.000264
      2      -0.001313  -0.007421   0.001803   0.000169  -0.000040  -0.000304
      3      -0.030134   0.000013  -0.000099   0.083079  -0.069525   0.001047
      4       0.076512  -0.018158   0.071800   0.017878  -0.013716   0.041851
      5       0.014045   0.077573  -0.049018   0.016781  -0.014949  -0.028381
      6       0.548000   0.155826   0.249315  -0.430168   0.362941  -0.198548
      7      -0.036663   0.069160  -0.068811   0.081950  -0.070143  -0.215138
      8       0.086749  -0.129444   0.157534  -0.022526   0.021992   0.495190
      9      -0.143608  -0.460073   0.272591  -0.346819   0.293755  -0.019051
     10      -0.202980  -0.049913  -0.088996  -0.074680   0.060175  -0.565756
     11      -0.069741  -0.233422   0.131318  -0.250887   0.211674  -0.046092
     12      -0.310434   0.402486  -0.510962  -0.391340   0.311602   0.220958
     13      -0.222217   0.077276  -0.205559  -0.224864   0.181778   0.157484
     14      -0.147865  -0.076608  -0.036597   0.014203  -0.012229  -0.020338
     15      -0.069904   0.042685   0.079512   0.013313   0.017901  -0.028672
     16       0.016868   0.038217   0.031648  -0.056715  -0.068483  -0.011678
     17       0.026169   0.056578   0.008581   0.041873   0.051083  -0.002269
     18       0.115237  -0.181910  -0.206326  -0.109308  -0.137823   0.293675
     19       0.080801   0.313679   0.170158   0.171503   0.210874   0.043183
     20      -0.141865  -0.377479  -0.162008  -0.300053  -0.366858  -0.180613
     21       0.039115   0.032305  -0.008080   0.066338   0.079656  -0.045730
     22       0.259204  -0.405401  -0.465004   0.316967   0.369156  -0.139928
     23      -0.310251   0.107073   0.296240  -0.185907  -0.214789   0.076647
     24       0.217081  -0.053801  -0.190189  -0.175818  -0.217750   0.180795
     25      -0.376679  -0.211410   0.135301   0.298762   0.364782   0.258129
     26       0.222859  -0.017841  -0.181243  -0.106622  -0.133077   0.146154
     27      -0.005198   0.003590  -0.000683  -0.000743   0.000904   0.000490
     28       0.000660   0.002596  -0.000161  -0.000931  -0.000456   0.000075
     29       0.001523   0.003424  -0.000116   0.000331   0.000645   0.000147
     30      -0.001732  -0.000033   0.000048   0.000839  -0.000749   0.000133
     31       0.005237  -0.001968  -0.000504   0.000805   0.000645  -0.000310
     32       0.000050   0.005100   0.000333  -0.000219  -0.000678   0.000247
                 24         25         26         27         28         29    
      0       0.000282   0.000029  -0.000092  -0.000058   0.000058  -0.000002
      1       0.000187  -0.000056   0.000187   0.000051   0.000035  -0.000006
      2      -0.000033  -0.000070   0.000266  -0.000052  -0.000003   0.000004
      3       0.000262   0.014616  -0.008310  -0.017583   0.034491   0.008207
      4       0.024973  -0.028054   0.016004   0.004450  -0.009212   0.063318
      5      -0.017404  -0.041316   0.022982  -0.008912   0.017802  -0.042111
      6      -0.119055   0.209457  -0.120955   0.014442  -0.028517  -0.048760
      7      -0.132645  -0.201290   0.112546   0.182785  -0.355589  -0.451885
      8       0.302955   0.272810  -0.151134   0.093704  -0.182800  -0.247944
      9      -0.012127  -0.239201   0.136778   0.108195  -0.211183  -0.304395
     10      -0.343382   0.269852  -0.155323   0.002952  -0.005411   0.001868
     11      -0.028051  -0.188141   0.107125  -0.177069   0.344448   0.464457
     12       0.132027  -0.187058   0.106062   0.127985  -0.253344   0.242469
     13       0.096802   0.347397  -0.193374  -0.245563   0.485196  -0.426062
     14      -0.009895   0.526048  -0.294559   0.208023  -0.411185   0.367191
     15       0.046959  -0.008131  -0.013875  -0.025045  -0.013018  -0.014474
     16       0.018037   0.015543   0.027507   0.021162   0.010652  -0.006954
     17       0.003736   0.023555   0.041832  -0.022521  -0.011473  -0.000325
     18      -0.487972   0.210581   0.371671  -0.059899  -0.029941   0.013250
     19      -0.070128  -0.051134  -0.093161  -0.339332  -0.171276   0.095628
     20       0.294621   0.066136   0.122512  -0.207554  -0.104572   0.055904
     21       0.073195   0.102301   0.181458   0.652035   0.333991   0.124184
     22       0.231299  -0.195321  -0.342786   0.025907   0.013073   0.001795
     23      -0.119525  -0.297657  -0.526695   0.207404   0.106355   0.041534
     24      -0.295748  -0.192663  -0.347515  -0.242303  -0.121947   0.064635
     25      -0.424037   0.016595   0.029092   0.007909   0.003929  -0.001071
     26      -0.238707  -0.117624  -0.212875   0.321190   0.162149  -0.092385
     27       0.000050   0.000132   0.000009  -0.000022   0.000137  -0.000098
     28       0.000007  -0.000239  -0.000017  -0.000143   0.000045  -0.000091
     29       0.000022  -0.000345  -0.000027   0.000085   0.000013   0.000027
     30      -0.000078  -0.000108  -0.000048   0.000109  -0.000099  -0.000015
     31       0.000225   0.000197   0.000079   0.000134   0.000048   0.000023
     32      -0.000167   0.000308   0.000128  -0.000050  -0.000062  -0.000023
                 30         31         32    
      0       0.000007   0.000000  -0.000007
      1       0.000007  -0.000001   0.000013
      2      -0.000002  -0.000001   0.000020
      3      -0.001855  -0.016447   0.014379
      4      -0.013395   0.033654  -0.029403
      5       0.008875   0.047569  -0.041580
      6       0.010332  -0.058057   0.050935
      7       0.096440  -0.481427   0.420929
      8       0.052938  -0.243340   0.212853
      9       0.064947   0.284824  -0.249344
     10      -0.000435   0.016559  -0.014455
     11      -0.099240  -0.432304   0.378118
     12      -0.050160   0.001264  -0.001072
     13       0.087892  -0.001592   0.001344
     14      -0.075785   0.016267  -0.014145
     15      -0.068724   0.014506   0.016555
     16      -0.033562  -0.028012  -0.032009
     17      -0.001273  -0.042553  -0.048612
     18       0.063754   0.069227   0.079047
     19       0.459675   0.401269   0.459017
     20       0.269211   0.224883   0.257070
     21       0.577369   0.004114   0.004679
     22       0.007936  -0.005356  -0.006121
     23       0.193457  -0.007664  -0.008752
     24       0.310473  -0.274345  -0.313460
     25      -0.005626  -0.007658  -0.008859
     26      -0.443304   0.372568   0.425906
     27       0.000010  -0.000001   0.000009
     28       0.000043  -0.000002  -0.000013
     29      -0.000024  -0.000001  -0.000022
     30       0.000065  -0.000003   0.000009
     31       0.000109   0.000004  -0.000016
     32      -0.000049   0.000005  -0.000023


-----------
IR SPECTRUM
-----------

 Mode   freq       eps      Int      T**2         TX        TY        TZ
       cm**-1   L/(mol*cm) km/mol    a.u.
----------------------------------------------------------------------------
  6:    124.98   0.000008    0.04  0.000021  ( 0.001711 -0.001802 -0.003793)
  7:    139.18   0.000309    1.56  0.000693  ( 0.015113  0.020496 -0.006650)
  8:    157.50   0.004062   20.53  0.008048  ( 0.025815 -0.045194 -0.073069)
  9:    160.09   0.001245    6.29  0.002427  ( 0.016346 -0.025731 -0.038698)
 10:    164.09   0.001590    8.04  0.003024  ( 0.012556 -0.030450 -0.044037)
 11:    191.67   0.001194    6.03  0.001944  (-0.033785  0.016909 -0.022736)
 12:    201.69   0.009772   49.38  0.015119  (-0.071592 -0.093059  0.036518)
 13:    314.05   0.009295   46.97  0.009236  (-0.071613  0.039537 -0.050444)
 14:    322.92   0.007823   39.53  0.007560  (-0.052973 -0.064685  0.023863)
 15:    472.35   0.001418    7.17  0.000937  ( 0.023366 -0.011726  0.015925)
 16:    480.30   0.000807    4.08  0.000524  (-0.012982 -0.017390  0.007303)
 17:    739.83   0.000045    0.23  0.000019  ( 0.002906 -0.000754 -0.003184)
 18:    747.63   0.007164   36.21  0.002990  ( 0.026118 -0.033130 -0.034794)
 19:    748.73   0.006797   34.35  0.002833  ( 0.002238 -0.021166 -0.048783)
 20:    768.53   0.017654   89.22  0.007169  (-0.048877 -0.064370  0.025221)
 21:   1225.95   0.019822  100.17  0.005046  (-0.057471  0.023143 -0.034743)
 22:   1232.16   0.011163   56.41  0.002827  ( 0.026615  0.042135 -0.018534)
 23:   1538.65   0.011337   57.29  0.002299  ( 0.031447 -0.023919  0.027173)
 24:   1542.89   0.006395   32.32  0.001294  (-0.028709 -0.021058  0.005087)
 25:   1555.55   0.000873    4.41  0.000175  (-0.003704  0.007380  0.010337)
 26:   1560.43   0.010847   54.82  0.002169  ( 0.012889 -0.024605 -0.037385)
 27:   3326.46   0.006003   30.34  0.000563  ( 0.018967 -0.007896  0.011876)
 28:   3327.19   0.000928    4.69  0.000087  (-0.003223  0.006841 -0.005460)
 29:   3429.87   0.011887   60.07  0.001081  (-0.006680 -0.027288  0.017094)
 30:   3430.42   0.023634  119.44  0.002150  ( 0.033683  0.030599 -0.008899)
 31:   3458.79   0.000150    0.76  0.000014  ( 0.000679 -0.002646 -0.002471)
 32:   3459.08   0.031228  157.82  0.002817  (-0.014330  0.028912  0.042143)

* The epsilon (eps) is given for a Dirac delta lineshape.
** The dipole moment derivative (T) already includes vibrational overlap.

The first frequency considered to be a vibration is 6
The total number of vibrations considered is 27


--------------------------
THERMOCHEMISTRY AT 298.15K
--------------------------

Temperature         ... 298.15 K
Pressure            ... 1.00 atm
Total Mass          ... 300.06 AMU

Throughout the following assumptions are being made:
  (1) The electronic state is orbitally nondegenerate
  (2) There are no thermally accessible electronically excited states
  (3) Hindered rotations indicated by low frequency modes are not
      treated as such but are treated as vibrations and this may
      cause some error
  (4) All equations used are the standard statistical mechanics
      equations for an ideal gas
  (5) All vibrations are strictly harmonic

freq.     124.98  E(vib)   ...       0.43 
freq.     139.18  E(vib)   ...       0.42 
freq.     157.50  E(vib)   ...       0.40 
freq.     160.09  E(vib)   ...       0.39 
freq.     164.09  E(vib)   ...       0.39 
freq.     191.67  E(vib)   ...       0.36 
freq.     201.69  E(vib)   ...       0.35 
freq.     314.05  E(vib)   ...       0.25 
freq.     322.92  E(vib)   ...       0.25 
freq.     472.35  E(vib)   ...       0.15 
freq.     480.30  E(vib)   ...       0.15 
freq.     739.83  E(vib)   ...       0.06 
freq.     747.63  E(vib)   ...       0.06 
freq.     748.73  E(vib)   ...       0.06 
freq.     768.53  E(vib)   ...       0.06 
freq.    1225.95  E(vib)   ...       0.01 
freq.    1232.16  E(vib)   ...       0.01 
freq.    1538.65  E(vib)   ...       0.00 
freq.    1542.89  E(vib)   ...       0.00 
freq.    1555.55  E(vib)   ...       0.00 
freq.    1560.43  E(vib)   ...       0.00 
freq.    3326.46  E(vib)   ...       0.00 
freq.    3327.19  E(vib)   ...       0.00 
freq.    3429.87  E(vib)   ...       0.00 
freq.    3430.42  E(vib)   ...       0.00 
freq.    3458.79  E(vib)   ...       0.00 
freq.    3459.08  E(vib)   ...       0.00 

------------
INNER ENERGY
------------

The inner energy is: U= E(el) + E(ZPE) + E(vib) + E(rot) + E(trans)
    E(el)   - is the total energy from the electronic structure calculation
              = E(kin-el) + E(nuc-el) + E(el-el) + E(nuc-nuc)
    E(ZPE)  - the the zero temperature vibrational energy from the frequency calculation
    E(vib)  - the the finite temperature correction to E(ZPE) due to population
              of excited vibrational states
    E(rot)  - is the rotational thermal energy
    E(trans)- is the translational thermal energy

Summary of contributions to the inner energy U:
Electronic energy                ...  -1152.92952430 Eh
Zero point energy                ...      0.07932803 Eh      49.78 kcal/mol
Thermal vibrational correction   ...      0.00605862 Eh       3.80 kcal/mol
Thermal rotational correction    ...      0.00141627 Eh       0.89 kcal/mol
Thermal translational correction ...      0.00141627 Eh       0.89 kcal/mol
-----------------------------------------------------------------------
Total thermal energy                  -1152.84130511 Eh


Summary of corrections to the electronic energy:
(perhaps to be used in another calculation)
Total thermal correction                  0.00889116 Eh       5.58 kcal/mol
Non-thermal (ZPE) correction              0.07932803 Eh      49.78 kcal/mol
-----------------------------------------------------------------------
Total correction                          0.08821919 Eh      55.36 kcal/mol


--------
ENTHALPY
--------

The enthalpy is H = U + kB*T
                kB is Boltzmann's constant
Total free energy                 ...  -1152.84130511 Eh 
Thermal Enthalpy correction       ...      0.00094421 Eh       0.59 kcal/mol
-----------------------------------------------------------------------
Total Enthalpy                    ...  -1152.84036090 Eh


Note: Only C1 symmetry has been detected, increase convergence thresholds 
      if your molecule has a higher symmetry. Symmetry factor of 1.0 is   
      used for the rotational entropy correction. 
 

Note: Rotational entropy computed according to Herzberg 
Infrared and Raman Spectra, Chapter V,1, Van Nostrand Reinhold, 1945 
Point Group:  C1, Symmetry Number:   1  
Rotational constants in cm-1:     0.069421     0.056364     0.031430 

Vibrational entropy computed according to the QRRHO of S. Grimme
Chem.Eur.J. 2012 18 9955


-------
ENTROPY
-------

The entropy contributions are T*S = T*(S(el)+S(vib)+S(rot)+S(trans))
     S(el)   - electronic entropy
     S(vib)  - vibrational entropy
     S(rot)  - rotational entropy
     S(trans)- translational entropy
The entropies will be listed as multiplied by the temperature to get
units of energy

Electronic entropy                ...      0.00000000 Eh      0.00 kcal/mol
Vibrational entropy               ...      0.01081682 Eh      6.79 kcal/mol
Rotational entropy                ...      0.01376126 Eh      8.64 kcal/mol
Translational entropy             ...      0.02042745 Eh     12.82 kcal/mol
-----------------------------------------------------------------------
Final entropy term                ...      0.04500553 Eh     28.24 kcal/mol

In case the symmetry of your molecule has not been determined correctly
or in case you have a reason to use a different symmetry number we print 
out the resulting rotational entropy values for sn=1,12 :
 --------------------------------------------------------
|  sn= 1 | S(rot)=       0.01376126 Eh      8.64 kcal/mol|
|  sn= 2 | S(rot)=       0.01310681 Eh      8.22 kcal/mol|
|  sn= 3 | S(rot)=       0.01272397 Eh      7.98 kcal/mol|
|  sn= 4 | S(rot)=       0.01245235 Eh      7.81 kcal/mol|
|  sn= 5 | S(rot)=       0.01224166 Eh      7.68 kcal/mol|
|  sn= 6 | S(rot)=       0.01206952 Eh      7.57 kcal/mol|
|  sn= 7 | S(rot)=       0.01192397 Eh      7.48 kcal/mol|
|  sn= 8 | S(rot)=       0.01179789 Eh      7.40 kcal/mol|
|  sn= 9 | S(rot)=       0.01168668 Eh      7.33 kcal/mol|
|  sn=10 | S(rot)=       0.01158721 Eh      7.27 kcal/mol|
|  sn=11 | S(rot)=       0.01149722 Eh      7.21 kcal/mol|
|  sn=12 | S(rot)=       0.01141506 Eh      7.16 kcal/mol|
 --------------------------------------------------------


-------------------
GIBBS FREE ENERGY
-------------------

The Gibbs free energy is G = H - T*S

Total enthalpy                    ...  -1152.84036090 Eh 
Total entropy correction          ...     -0.04500553 Eh    -28.24 kcal/mol
-----------------------------------------------------------------------
Final Gibbs free energy         ...  -1152.88536643 Eh

For completeness - the Gibbs free energy minus the electronic energy
G-E(el)                           ...      0.04415787 Eh     27.71 kcal/mol


Timings for individual modules:

Sum of individual times         ...       22.952 sec (=   0.383 min)
GTO integral calculation        ...        0.289 sec (=   0.005 min)   1.3 %
SCF iterations                  ...        2.730 sec (=   0.046 min)  11.9 %
Analytical frequency calculation...       19.932 sec (=   0.332 min)  86.8 %
                             ****ORCA TERMINATED NORMALLY****
TOTAL RUN TIME: 0 days 0 hours 0 minutes 23 seconds 166 msec
