[Molden Format]
[Title]
 Molden file created by orca_2mkl for BaseName=orca_freq

[Atoms] AU
Pt   1  78         -5.4278754669         0.2781931618         0.3315720041 
N    2   7         -1.6816664864         1.2026658437         1.0135939690 
H    3   1         -1.4555902987         2.9202784558         1.9093600174 
H    4   1         -0.5891101377         1.2425511202        -0.6015406725 
H    5   1         -0.9306722947        -0.1693122286         2.1880169424 
N    6   7         -6.0318295861         3.4140064808        -1.9385694932 
H    7   1         -5.7701269852         5.1061056906        -1.0047197713 
H    8   1         -7.8898337115         3.3662483776        -2.5475810903 
H    9   1         -4.9007453655         3.4488253861        -3.5269050561 
Cl  10  17         -4.6883565397        -3.2484347959         2.9096079260 
Cl  11  17         -9.6669171244        -0.7217779128        -0.4789417233 
[GTO]
  1 0
s   2 1.0 
       16.5595630000        -8.2111709246
       13.8924400000        12.2265939393
s   1 1.0 
        5.8531044732         2.6819445795
s   1 1.0 
        1.2498640609         0.8424753011
s   1 1.0 
        0.5560643946         0.4589378830
s   1 1.0 
        0.1379309381         0.1613081683
s   1 1.0 
        0.0489890341         0.0742137283
p   4 1.0 
        8.1000000000        15.3722926767
        7.2000000000       -17.3571319056
        1.5588402917         1.5346865251
        0.7323040218         0.5171486561
p   1 1.0 
        0.3027048467         0.3200474020
p   1 1.0 
        0.0500000000         0.0337017609
d   4 1.0 
        4.6299536825        -4.0045426569
        2.1980241252         2.6209846974
        0.9362999126         1.2947053721
        0.3716002816         0.2270955538
d   1 1.0 
        0.1315592862         0.0819280698
f   1 1.0 
        0.6681300000         2.3011094061

  2 0
s   5 1.0 
     1712.8415853000        -1.0337585405
      257.6481267700        -1.8620740805
       58.4582458530        -2.7290401880
       16.1983679050        -2.6956734544
        5.0052600809        -1.0640914367
s   1 1.0 
        0.5873185657         0.4781513534
s   1 1.0 
        0.1876459225         0.2031956662
p   3 1.0 
       13.5714702330        -2.1850243557
        2.9257372874        -1.7466999024
        0.7992775075        -0.8114650516
p   1 1.0 
        0.2195434803         0.2142105067
d   1 1.0 
        1.0000000000         2.8508218814

  3 0
s   3 1.0 
       13.0107010000         0.1634903809
        1.9622572000         0.2773515510
        0.4445379600         0.3157501452
s   1 1.0 
        0.1219496200         0.1470772262
p   1 1.0 
        0.8000000000         1.0784563492

  4 0
s   3 1.0 
       13.0107010000         0.1634903809
        1.9622572000         0.2773515510
        0.4445379600         0.3157501452
s   1 1.0 
        0.1219496200         0.1470772262
p   1 1.0 
        0.8000000000         1.0784563492

  5 0
s   3 1.0 
       13.0107010000         0.1634903809
        1.9622572000         0.2773515510
        0.4445379600         0.3157501452
s   1 1.0 
        0.1219496200         0.1470772262
p   1 1.0 
        0.8000000000         1.0784563492

  6 0
s   5 1.0 
     1712.8415853000        -1.0337585405
      257.6481267700        -1.8620740805
       58.4582458530        -2.7290401880
       16.1983679050        -2.6956734544
        5.0052600809        -1.0640914367
s   1 1.0 
        0.5873185657         0.4781513534
s   1 1.0 
        0.1876459225         0.2031956662
p   3 1.0 
       13.5714702330        -2.1850243557
        2.9257372874        -1.7466999024
        0.7992775075        -0.8114650516
p   1 1.0 
        0.2195434803         0.2142105067
d   1 1.0 
        1.0000000000         2.8508218814

  7 0
s   3 1.0 
       13.0107010000         0.1634903809
        1.9622572000         0.2773515510
        0.4445379600         0.3157501452
s   1 1.0 
        0.1219496200         0.1470772262
p   1 1.0 
        0.8000000000         1.0784563492

  8 0
s   3 1.0 
       13.0107010000         0.1634903809
        1.9622572000         0.2773515510
        0.4445379600         0.3157501452
s   1 1.0 
        0.1219496200         0.1470772262
p   1 1.0 
        0.8000000000         1.0784563492

  9 0
s   3 1.0 
       13.0107010000         0.1634903809
        1.9622572000         0.2773515510
        0.4445379600         0.3157501452
s   1 1.0 
        0.1219496200         0.1470772262
p   1 1.0 
        0.8000000000         1.0784563492

 10 0
s   5 1.0 
    10449.8275660000         3.9973241313
     1571.7365221000         7.2277480961
      357.1206552300        10.7494942607
      100.2518593500        10.7118498358
       30.8127275540         4.0765111022
s   3 1.0 
       51.9237894340        -1.2786987774
        5.7045760975         1.4832318965
        2.3508376809         0.6815120566
s   1 1.0 
        0.4460512467         0.3889991572
s   1 1.0 
        0.1684885619         0.1874294841
p   5 1.0 
      307.6679056900       -16.3095226390
       72.1020155150       -19.2520828188
       22.5326802620       -16.9965641132
        7.8991765444        -9.1249716393
        2.8767268321        -2.0801728153
p   1 1.0 
        0.7745936396         1.0358157160
p   1 1.0 
        0.2103769970         0.2030897020
d   1 1.0 
        0.6500000000         1.3414313681

 11 0
s   5 1.0 
    10449.8275660000         3.9973241313
     1571.7365221000         7.2277480961
      357.1206552300        10.7494942607
      100.2518593500        10.7118498358
       30.8127275540         4.0765111022
s   3 1.0 
       51.9237894340        -1.2786987774
        5.7045760975         1.4832318965
        2.3508376809         0.6815120566
s   1 1.0 
        0.4460512467         0.3889991572
s   1 1.0 
        0.1684885619         0.1874294841
p   5 1.0 
      307.6679056900       -16.3095226390
       72.1020155150       -19.2520828188
       22.5326802620       -16.9965641132
        7.8991765444        -9.1249716393
        2.8767268321        -2.0801728153
p   1 1.0 
        0.7745936396         1.0358157160
p   1 1.0 
        0.2103769970         0.2030897020
d   1 1.0 
        0.6500000000         1.3414313681

[5D]
[7F]
[9G]
[MO]
 Sym=     1a
 Ene= -1.00645783616231E+02
 Spin= Alpha
 Occup= 2.000000
  1      -0.000142166417
  2       0.000297010458
  3      -0.000936431829
  4       0.001939008835
  5      -0.001895225366
  6      -0.003516886456
  7      -0.000055359139
  8      -0.000102038325
  9       0.000048121387
 10       0.000166071382
 11       0.000308550539
 12      -0.000145887591
 13       0.000750796024
 14       0.001811807579
 15      -0.000931748733
 16      -0.000019327090
 17       0.000007850482
 18      -0.000026735174
 19       0.000003822836
 20       0.000018272056
 21       0.000655186532
 22      -0.000774366069
 23       0.001733738955
 24       0.000136294453
 25      -0.000089512916
 26       0.000022323541
 27      -0.000030276290
 28       0.000014897689
 29       0.000058847316
 30       0.000024248966
 31      -0.000033115334
 32      -0.000004849885
 33      -0.000001191633
 34      -0.000174448704
 35       0.001188345727
 36       0.000007656307
 37       0.000017394735
 38      -0.000008643364
 39      -0.000310385257
 40      -0.000141257111
 41      -0.000009258859
 42      -0.000012027081
 43      -0.000010933747
 44      -0.000016899478
 45      -0.000011918528
 46       0.000025494076
 47      -0.000097985833
 48      -0.000078606292
 49       0.000028438479
 50       0.000010983962
 51       0.000030242678
 52      -0.000096408431
 53      -0.000071972007
 54       0.000040060592
 55      -0.000013822710
 56      -0.000003879956
 57      -0.000034932088
 58      -0.000056686459
 59       0.000083285291
 60       0.000011509384
 61       0.000021345031
 62      -0.000008490935
 63      -0.000288984202
 64       0.002025330122
 65       0.000011890211
 66      -0.000004416553
 67       0.000006897341
 68       0.000047962014
 69      -0.000470090605
 70       0.000323650147
 71      -0.000008251428
 72      -0.000005540471
 73      -0.000017035691
 74      -0.000010247854
 75       0.000015329966
 76      -0.000102563885
 77      -0.000270919120
 78      -0.000012465750
 79       0.000055649790
 80      -0.000001865492
 81      -0.000063646194
 82      -0.000247520111
 83      -0.000036845622
 84       0.000043591020
 85      -0.000041026865
 86      -0.000103298219
 87      -0.000271760050
 88       0.000005066400
 89       0.000022622321
 90      -0.000052362695
 91       0.845756046351
 92       0.019101374419
 93      -0.009962477602
 94       0.008779649979
 95       0.000025347512
 96      -0.000089432846
 97       0.000067688131
 98       0.000133884913
 99      -0.000405465942
100       0.000313423498
101      -0.000472738489
102       0.001517238940
103      -0.001162959482
104      -0.000009966698
105       0.000060090323
106      -0.000218576225
107      -0.000119273518
108      -0.000058260676
109       0.522297475779
110       0.011811569428
111      -0.006272974757
112       0.005548354834
113      -0.000068819079
114      -0.000006378702
115      -0.000019655610
116      -0.000325232692
117      -0.000014291405
118      -0.000103331697
119       0.001165567901
120       0.000079847410
121       0.000351515868
122      -0.000082506378
123       0.000069192573
124      -0.000029072790
125       0.000113959157
126       0.000052937243
 Sym=     1a
 Ene= -1.00645753293936E+02
 Spin= Alpha
 Occup= 2.000000
  1       0.000033634901
  2      -0.000070267134
  3       0.000221505888
  4      -0.000458638654
  5       0.000448488197
  6       0.000831752294
  7       0.000088577347
  8      -0.000013896556
  9       0.000040504212
 10      -0.000272599415
 11       0.000044503474
 12      -0.000125465369
 13      -0.002262504788
 14       0.000629842027
 15      -0.001197225141
 16       0.000002881544
 17      -0.000001622961
 18       0.000009477154
 19       0.000004013336
 20      -0.000002190911
 21      -0.000999252553
 22       0.000432039194
 23       0.001201545801
 24       0.002316862776
 25       0.001135519502
 26       0.000041272659
 27       0.000024181073
 28       0.000022824289
 29      -0.000007108186
 30       0.000019482427
 31       0.000027404743
 32       0.000030275160
 33       0.000016578973
 34       0.000296871816
 35      -0.002148493972
 36       0.000037648995
 37       0.000019561384
 38      -0.000000145124
 39       0.000592270128
 40       0.000095435115
 41       0.000140761641
 42       0.000005801746
 43      -0.000013169521
 44      -0.000016582440
 45      -0.000030318625
 46       0.000002553784
 47       0.000035258990
 48       0.000452398874
 49      -0.000025117583
 50      -0.000048590341
 51      -0.000008570159
 52       0.000034745414
 53       0.000456039112
 54      -0.000039732215
 55      -0.000021304695
 56       0.000033331566
 57       0.000073482084
 58       0.000441875626
 59       0.000022315470
 60       0.000040539511
 61      -0.000018587043
 62      -0.000014306353
 63      -0.000187354454
 64       0.001388560940
 65      -0.000012105265
 66      -0.000038159869
 67       0.000020730513
 68       0.000146287755
 69      -0.000295770245
 70       0.000242972591
 71       0.000016904052
 72       0.000011804938
 73      -0.000009709876
 74      -0.000014502064
 75      -0.000035706715
 76       0.000012872718
 77      -0.000370926745
 78       0.000025955599
 79       0.000030651898
 80       0.000005435077
 81      -0.000050184817
 82      -0.000371189188
 83      -0.000020666742
 84      -0.000059196253
 85       0.000031870383
 86       0.000011826266
 87      -0.000371996663
 88       0.000033804984
 89       0.000016781194
 90      -0.000016126024
 91       0.522302767118
 92       0.011761603362
 93      -0.005883217664
 94       0.005140345827
 95      -0.000000633065
 96      -0.000060318261
 97       0.000039536827
 98      -0.000014131267
 99      -0.000266161632
100       0.000170532989
101      -0.000006104221
102       0.001054292961
103      -0.000696655133
104       0.000027876443
105       0.000005871550
106      -0.000110932521
107      -0.000113058071
108      -0.000054326693
109      -0.845759312261
110      -0.019070533766
111       0.009722017849
112      -0.008529010232
113       0.000109096056
114       0.000033160168
115       0.000016007894
116       0.000486664542
117       0.000148616508
118       0.000070966801
119      -0.001896714098
120      -0.000549813654
121      -0.000295735923
122       0.000108366163
123      -0.000070212748
124      -0.000048912310
125      -0.000203910519
126      -0.000095454052
 Sym=     1a
 Ene= -1.40768248964519E+01
 Spin= Alpha
 Occup= 2.000000
  1      -0.000102863897
  2       0.000243123063
  3      -0.000877741666
  4       0.002002124020
  5      -0.003393901078
  6      -0.002952712598
  7      -0.000196289762
  8       0.000354828823
  9      -0.000299778748
 10       0.001124486775
 11      -0.002002908280
 12       0.001701721194
 13       0.000191863793
 14      -0.001570972773
 15       0.001099073372
 16      -0.000005295344
 17      -0.000006651674
 18       0.000074052571
 19       0.000061016578
 20       0.000019321080
 21      -0.001172461147
 22      -0.000364341713
 23       0.005006394408
 24       0.004948100457
 25       0.002426726762
 26       0.000139527356
 27       0.000006489721
 28       0.000086291051
 29       0.000124421379
 30       0.000074265767
 31       0.000003271169
 32       0.000088808147
 33      -0.226816064808
 34       0.011108318515
 35      -0.007721151615
 36      -0.000279826789
 37      -0.000143929767
 38      -0.000001350727
 39       0.001775740746
 40      -0.000564582466
 41       0.000979379197
 42       0.000129832906
 43      -0.000008338076
 44      -0.000145159733
 45      -0.000252222276
 46      -0.000186978902
 47      -0.000403022619
 48       0.001168150676
 49      -0.000092016827
 50       0.000767683302
 51       0.000130859342
 52      -0.000411787265
 53       0.001164309224
 54       0.000207152686
 55       0.000193214823
 56      -0.000731466001
 57      -0.000910664723
 58      -0.000053131550
 59       0.000224427964
 60      -0.000769034748
 61       0.000591977116
 62       0.961614025028
 63      -0.045818128017
 64       0.025176800956
 65      -0.000302246994
 66       0.001332504625
 67      -0.000980372234
 68       0.001000695334
 69      -0.004657706296
 70       0.003407624577
 71       0.000020652250
 72       0.000340248011
 73      -0.001273459064
 74      -0.000785649699
 75      -0.000447548168
 76       0.002931026719
 77      -0.001647771724
 78      -0.000647311325
 79      -0.002809821222
 80      -0.002175429589
 81       0.002748874206
 82      -0.001532371087
 83       0.003427982312
 84       0.000558246624
 85       0.000814633421
 86       0.002932054502
 87      -0.001643721819
 88      -0.002336659906
 89       0.000409254287
 90       0.002725377738
 91      -0.000009327146
 92       0.000092695426
 93      -0.001149985986
 94       0.004651417091
 95      -0.000002604582
 96      -0.000054326319
 97       0.000034976903
 98       0.000001695030
 99      -0.000374685698
100       0.000247945029
101      -0.000380200950
102       0.002483553793
103      -0.001769021190
104       0.000018692408
105       0.000049546858
106      -0.000345920272
107      -0.000259283304
108      -0.000099442413
109       0.000007893607
110      -0.000072623080
111       0.000590947877
112      -0.002232898202
113       0.000058176621
114       0.000030186713
115       0.000000331256
116       0.000338996858
117       0.000157218437
118       0.000014214210
119      -0.001648154436
120      -0.000292488531
121      -0.000379009351
122       0.000076093889
123      -0.000029757436
124      -0.000057048664
125      -0.000145601618
126      -0.000086797346
 Sym=     1a
 Ene= -1.40767421163364E+01
 Spin= Alpha
 Occup= 2.000000
  1       0.000166414542
  2      -0.000393338708
  3       0.001420409965
  4      -0.003240244690
  5       0.005488529610
  6       0.004785702507
  7      -0.000437732557
  8      -0.000188682798
  9      -0.000025664929
 10       0.002471119342
 11       0.001054933114
 12       0.000154977510
 13       0.001951709192
 14       0.001397577071
 15      -0.000247937821
 16      -0.000044680578
 17       0.000025731519
 18      -0.000018239864
 19       0.000051118007
 20       0.000038231465
 21      -0.002442758349
 22       0.001864087939
 23       0.000182240812
 24       0.004082281842
 25       0.001803978715
 26       0.000041678740
 27       0.000118865751
 28       0.000027155549
 29      -0.000113566427
 30      -0.000008352136
 31       0.000117756319
 32       0.000095236315
 33      -0.961630663468
 34       0.045667263952
 35      -0.024287412406
 36      -0.001663526551
 37      -0.000323874750
 38      -0.000355993527
 39       0.005390416360
 40       0.001730542949
 41       0.000712451470
 42       0.000715347510
 43      -0.000611041036
 44      -0.000035485088
 45      -0.001243251660
 46      -0.000466137816
 47      -0.003078239050
 48       0.001254006193
 49      -0.000123744257
 50       0.003230085880
 51       0.001732438050
 52      -0.003072941400
 53       0.001253863360
 54       0.001609377091
 55      -0.000128482016
 56      -0.003291250208
 57      -0.002614026943
 58       0.001737087266
 59       0.000851280296
 60      -0.002671566210
 61       0.002075350948
 62      -0.226886060633
 63       0.010472738196
 64      -0.003942522152
 65       0.000194997931
 66      -0.000367139711
 67       0.000308481983
 68       0.001064726956
 69       0.001154212621
 70      -0.000391962445
 71       0.000059295896
 72      -0.000223523615
 73       0.000391223415
 74       0.000078900319
 75       0.000152181840
 76      -0.001010756895
 77      -0.000484979172
 78      -0.000082416357
 79       0.000806044417
 80       0.000590762458
 81      -0.000353667664
 82       0.000822194119
 83      -0.000642536982
 84      -0.000088696974
 85      -0.000163086456
 86      -0.001012166811
 87      -0.000482395036
 88       0.000428667702
 89      -0.000167485525
 90      -0.000890695908
 91      -0.000004162881
 92       0.000034870280
 93      -0.000086402361
 94       0.000173221301
 95      -0.000007690885
 96      -0.000034884377
 97       0.000020415896
 98      -0.000030113697
 99      -0.000165220680
100       0.000098901058
101      -0.000252367957
102       0.000244295425
103      -0.000248696929
104       0.000017919647
105      -0.000024836965
106       0.000022094308
107      -0.000019736372
108      -0.000001581175
109       0.000006476299
110      -0.000067282419
111       0.000990351048
112      -0.004087997633
113       0.000037146899
114       0.000013640149
115       0.000004009393
116       0.000296899468
117       0.000103435087
118       0.000035520962
119      -0.002448253761
120      -0.000758005136
121      -0.000352070591
122       0.000180071577
123      -0.000111561786
124      -0.000040903907
125      -0.000300901793
126      -0.000160730101
 Sym=     1a
 Ene= -9.12778126791459E+00
 Spin= Alpha
 Occup= 2.000000
  1       0.000151999120
  2      -0.000373553684
  3       0.001551405997
  4      -0.003615384535
  5       0.003610974685
  6       0.009548761567
  7       0.000078700891
  8       0.000133041305
  9      -0.000060888118
 10      -0.000353909666
 11      -0.000743867556
 12       0.000368508958
 13      -0.001776355942
 14      -0.005831653094
 15       0.003220683069
 16       0.000076625526
 17      -0.000035902318
 18       0.000105852759
 19      -0.000019144707
 20      -0.000068055529
 21      -0.001462018351
 22       0.001777288319
 23      -0.004400903060
 24      -0.000697426881
 25       0.000112088861
 26      -0.000025714219
 27       0.000022158090
 28       0.000000578307
 29      -0.000017659743
 30      -0.000007566050
 31      -0.000004161133
 32       0.000021302160
 33      -0.000006496634
 34       0.000307408923
 35      -0.002505335293
 36      -0.000062477699
 37      -0.000058435546
 38       0.000016292637
 39       0.000470915832
 40       0.000290968813
 41      -0.000043631581
 42       0.000022210970
 43       0.000026166430
 44       0.000038906868
 45       0.000033853235
 46      -0.000051816211
 47       0.000221095238
 48       0.000231494178
 49      -0.000041257406
 50      -0.000012699821
 51      -0.000087919664
 52       0.000216119554
 53       0.000209584040
 54      -0.000075421222
 55       0.000060613161
 56       0.000013642572
 57       0.000087494453
 58       0.000122465909
 59      -0.000243733283
 60      -0.000059009322
 61      -0.000045714946
 62       0.000017726429
 63       0.000675822678
 64      -0.005170362890
 65      -0.000021684972
 66      -0.000022567094
 67       0.000007672786
 68      -0.000116596788
 69       0.000931063659
 70      -0.000646860806
 71       0.000013970679
 72       0.000011432725
 73       0.000036621149
 74       0.000025242208
 75      -0.000027118526
 76       0.000235281794
 77       0.001065415346
 78       0.000029380531
 79      -0.000145151908
 80      -0.000019692234
 81       0.000148506910
 82       0.000967229491
 83       0.000096728626
 84      -0.000107287940
 85       0.000103040165
 86       0.000237227322
 87       0.001068430262
 88      -0.000026853930
 89      -0.000039160487
 90       0.000142362329
 91      -0.277733151844
 92       0.909128833201
 93       0.052172851457
 94      -0.029638880176
 95       0.000345935483
 96      -0.002692929408
 97       0.001895969457
 98      -0.000375914055
 99       0.001309159011
100      -0.000992470757
101       0.001263569794
102      -0.004080029688
103       0.003124510374
104       0.000016803221
105      -0.000096975035
106       0.000314818178
107       0.000160946218
108       0.000090234429
109      -0.140584423601
110       0.460158161978
111       0.026794852798
112      -0.015548730199
113      -0.001592908840
114      -0.000485732788
115      -0.000231293465
116       0.000843609863
117       0.000031395424
118       0.000271661759
119      -0.002612287525
120      -0.000005318229
121      -0.000901910544
122       0.000104559333
123      -0.000108252941
124       0.000079103044
125      -0.000126844429
126      -0.000045001930
 Sym=     1a
 Ene= -9.12776244117161E+00
 Spin= Alpha
 Occup= 2.000000
  1      -0.000049865588
  2       0.000122545286
  3      -0.000508769951
  4       0.001185395463
  5      -0.001184347900
  6      -0.003130843719
  7      -0.000084369822
  8      -0.000014498164
  9      -0.000021184936
 10       0.000654289505
 11      -0.000027051158
 12       0.000248515244
 13       0.007211415495
 14      -0.001453440285
 15       0.003450416039
 16      -0.000018546100
 17       0.000010704744
 18      -0.000047152098
 19      -0.000012871449
 20       0.000013903803
 21       0.002430140055
 22      -0.001158411074
 23      -0.002280515869
 24      -0.005197219030
 25      -0.002611278552
 26      -0.000027968102
 27       0.000002806132
 28      -0.000009121878
 29       0.000036438092
 30      -0.000042809240
 31      -0.000006128263
 32       0.000024726097
 33      -0.000038765936
 34      -0.000722703886
 35       0.005319214413
 36      -0.000058378921
 37      -0.000036115277
 38       0.000004021236
 39      -0.001189684701
 40      -0.000142598548
 41      -0.000316567166
 42      -0.000016818759
 43       0.000023768659
 44       0.000034319467
 45       0.000064680592
 46       0.000004555681
 47      -0.000100252017
 48      -0.001494033831
 49       0.000071944168
 50       0.000141606978
 51       0.000031389870
 52      -0.000099826767
 53      -0.001504111266
 54       0.000117675638
 55       0.000056171642
 56      -0.000098907532
 57      -0.000133968453
 58      -0.001471084071
 59      -0.000059325682
 60      -0.000120387110
 61       0.000058064500
 62       0.000035143724
 63       0.000400644350
 64      -0.002802857439
 65       0.000034385745
 66       0.000089321522
 67      -0.000046377189
 68      -0.000364139243
 69       0.000474408636
 70      -0.000432833324
 71      -0.000037536178
 72      -0.000023704825
 73       0.000022325472
 74       0.000034928742
 75       0.000077089206
 76      -0.000050351247
 77       0.001073238562
 78      -0.000079266558
 79      -0.000084913913
 80      -0.000004643992
 81       0.000056674223
 82       0.001117400252
 83       0.000061961868
 84       0.000196007848
 85      -0.000107551183
 86      -0.000047887597
 87       0.001076036644
 88      -0.000095030195
 89      -0.000057406062
 90       0.000038334014
 91      -0.140597716574
 92       0.460280906256
 93       0.025759793872
 94      -0.014082371310
 95       0.000210106996
 96      -0.001350544849
 97       0.000963492050
 98       0.000051174143
 99       0.000719877682
100      -0.000456770193
101      -0.000195273386
102      -0.002332831840
103       0.001469349239
104      -0.000059349500
105       0.000022787340
106       0.000114401264
107       0.000170317948
108       0.000073863438
109       0.277739904329
110      -0.909191140592
111      -0.051648539685
112       0.028898398181
113       0.003149200323
114       0.000898244391
115       0.000498065020
116      -0.001584127944
117      -0.000459296037
118      -0.000246903358
119       0.005028863960
120       0.001444353088
121       0.000792717735
122      -0.000152432222
123       0.000095297067
124       0.000085144268
125       0.000297533533
126       0.000138744928
 Sym=     1a
 Ene= -6.95587594699295E+00
 Spin= Alpha
 Occup= 2.000000
  1      -0.000022512173
  2       0.000056767996
  3      -0.000284350520
  4       0.000847129628
  5      -0.001530935032
  6      -0.001267586640
  7      -0.000135046661
  8      -0.000031578799
  9      -0.000027201226
 10       0.001010948690
 11       0.000018127564
 12       0.000341569646
 13       0.000705897838
 14      -0.000045162578
 15       0.000278199817
 16       0.000089088411
 17      -0.000065851551
 18      -0.000082959849
 19      -0.000209101910
 20      -0.000074452955
 21       0.001992424844
 22      -0.000707117779
 23      -0.002522800269
 24      -0.004602326469
 25      -0.002413896109
 26       0.000049098398
 27       0.000026996003
 28       0.000033529780
 29      -0.000000023685
 30       0.000035720454
 31       0.000019680108
 32       0.000038418704
 33      -0.000058736641
 34      -0.000762193376
 35       0.004060664638
 36      -0.000194174679
 37      -0.000086644244
 38      -0.000009159248
 39      -0.002018030137
 40      -0.000736174122
 41      -0.000204043097
 42      -0.000020515130
 43       0.000050367767
 44      -0.000013663539
 45       0.000050926323
 46      -0.000017296304
 47      -0.000015764351
 48       0.000156581283
 49       0.000067530597
 50      -0.000011190339
 51      -0.000046819640
 52      -0.000015280291
 53       0.000159695059
 54       0.000032746234
 55       0.000055188160
 56       0.000051869167
 57      -0.000306298675
 58       0.000118517176
 59       0.000052640459
 60      -0.000015927303
 61       0.000028198063
 62       0.000060755121
 63       0.000650512421
 64      -0.003053005559
 65       0.000082410870
 66       0.000196273883
 67      -0.000100342953
 68       0.000497273983
 69       0.001463810690
 70      -0.000788635671
 71       0.000011070093
 72      -0.000071812844
 73       0.000031471962
 74      -0.000044527112
 75       0.000052252199
 76      -0.000123771244
 77      -0.000030616803
 78      -0.000092163562
 79       0.000011109083
 80       0.000091021950
 81       0.000465190244
 82       0.000007871830
 83       0.000094523426
 84       0.000049413129
 85       0.000000000519
 86      -0.000122581709
 87      -0.000028927037
 88      -0.000034799986
 89      -0.000099493733
 90      -0.000076657072
 91       0.000557056455
 92      -0.001999556219
 93       0.001334451450
 94      -0.003587573205
 95       0.076530884144
 96      -0.329593883175
 97       0.244065815576
 98      -0.004196374931
 99       0.017944738088
100      -0.013297647503
101       0.001015899328
102      -0.004328649608
103       0.003206614388
104      -0.000033367703
105      -0.000019057606
106       0.000121230526
107       0.000116100313
108       0.000074884808
109      -0.001182786194
110       0.004238631163
111      -0.002770525290
112       0.006602607452
113       0.849956958034
114       0.187088702199
115       0.170597351028
116      -0.046163384024
117      -0.010153216922
118      -0.009272893695
119       0.010279272993
120       0.002223913247
121       0.002092959813
122      -0.000120575208
123       0.000111580267
124       0.000052433571
125       0.000252252675
126       0.000076538597
 Sym=     1a
 Ene= -6.95586270666244E+00
 Spin= Alpha
 Occup= 2.000000
  1       0.000062548798
  2      -0.000157736533
  3       0.000790358157
  4      -0.002353842713
  5       0.004250107423
  6       0.003522299274
  7       0.000125200652
  8       0.000213723339
  9      -0.000097786747
 10      -0.000559193607
 11      -0.001187267667
 12       0.000589117318
 13      -0.000285999579
 14      -0.000718410933
 15       0.000371847112
 16      -0.000038228271
 17       0.000121380561
 18      -0.000168659383
 19      -0.000000636944
 20      -0.000068974564
 21      -0.000458865738
 22       0.000473377247
 23      -0.002684650056
 24      -0.001356230760
 25       0.000000870046
 26       0.000037340920
 27      -0.000010178453
 28       0.000004204306
 29       0.000024547411
 30      -0.000002077359
 31       0.000020473333
 32      -0.000001153785
 33      -0.000024323790
 34      -0.000099724055
 35      -0.000116386141
 36      -0.000051211489
 37      -0.000122986185
 38       0.000063341853
 39       0.000228152656
 40      -0.000674846422
 41       0.000517353746
 42       0.000014862665
 43       0.000049680853
 44      -0.000044816940
 45      -0.000007680862